% Model:              nanoholes_rw_sweep.mph
% Version:            COMSOL 6.0.0.405
% Date:               Apr 2 2024, 20:03
% Table:              Table 1 - Global Evaluation 1
% r (nm)                 h_meta (nm)              freq (THz)               reflection (1)           transmission (1)         reflection_phi (rad)     transmission_phi (rad)
19.999999999999996       500                      304.66713211382114       0.2962206455076184       0.7037793544918522       2.7338205787140413       -1.979321640575568
19.999999999999996       509.99999999999994       304.66713211382114       0.296519606691973        0.7034803933082611       1.844094358676117        -2.4224328726895012
19.999999999999996       519.9999999999999        304.66713211382114       0.2976897816481763       0.7023102183517161       0.9553760742238263       -2.8653049328909788
19.999999999999996       530                      304.66713211382114       0.2995083677243872       0.7004916322756563       0.06877190539019626      2.9754868902170704
19.999999999999996       540                      304.66713211382114       0.3016218808541874       0.6983781191457981       -0.8150892767967215      2.5337299695019304
19.999999999999996       550                      304.66713211382114       0.3036500845188422       0.6963499154810058       -1.696115566043888       2.092606273881868
19.999999999999996       560                      304.66713211382114       0.3051500647600066       0.694849935239947        -2.574757393286379       1.6520701693867093
19.999999999999996       570                      304.66713211382114       0.305882043378081        0.694117956621835        2.831356772808849        1.2118883370091331
19.999999999999996       580                      304.66713211382114       0.30571278505639804      0.6942872149380451       1.9545855246160306       0.7717916152079397
19.999999999999996       590                      304.66713211382114       0.30467099136255194      0.6953290086374637       1.0770438836883367       0.3314908395135853
19.999999999999996       600                      304.66713211382114       0.3029472992359131       0.6970527007643107       0.1976043204469342       -0.10925581040980449
22                       500                      304.66713211382114       0.2943189894010547       0.7056810105990114       2.785056723267502        -1.953997295640387
22                       509.99999999999994       304.66713211382114       0.2946040508281821       0.7053959491717969       1.8951252543997719       -2.396876196164446
22                       519.9999999999999        304.66713211382114       0.2958883482622833       0.7041116517378032       1.0062971980532036       -2.8394948536446156
22                       530                      304.66713211382114       0.29797782913066573      0.7020221708694028       0.11987453427773198      3.00160269147542
22                       540                      304.66713211382114       0.3004724602053624       0.6995275397948358       -0.763443140159692       2.560245124170357
22                       550                      304.66713211382114       0.30286106436904076      0.6971389356309514       -1.6433610894483532      2.119661186383496
22                       560                      304.66713211382114       0.30470767073555616      0.6952923292636835       -2.5204216450016648      1.6797379920146482
22                       570                      304.66713211382114       0.30568304127340196      0.6943169587264649       2.887671922801423        1.240296897866585
22                       580                      304.66713211382114       0.3055910158869881       0.6944089841129654       2.0130770136210625       0.8009598092239079
22                       590                      304.66713211382114       0.30445486854546516      0.6955451314544094       1.137761626068641        0.3614477239038681
22                       600                      304.66713211382114       0.30250167108769055      0.6974983289122167       0.2602568097809596       -0.07856844009410635
24                       500                      304.66713211382114       0.2923255566412342       0.7076744433588079       2.839555933391246        -1.9271391086897716
24                       509.99999999999994       304.66713211382114       0.292540540167782        0.7074594598321874       1.9493876832041008       -2.369770681520585
24                       519.9999999999999        304.66713211382114       0.29394679879936003      0.7060532012007237       1.0603432253358254       -2.812155873031095
24                       530                      304.66713211382114       0.2963112405578661       0.7036887594422296       0.1739713186111132       3.029250007593857
24                       540                      304.66713211382114       0.29915600341844406      0.7008439965816067       -0.7087559296547336      2.588298701735808
24                       550                      304.66713211382114       0.3019514601790671       0.6980485398209658       -1.5875773757052125      2.148256183738631
24                       560                      304.66713211382114       0.30418046772649115      0.695819532273507        -2.4630362774679324      1.7089985977406619
24                       570                      304.66713211382114       0.30542015035547143      0.6945798496446018       2.9469924528642806       1.2702616592793616
24                       580                      304.66713211382114       0.30544136105857655      0.6945586389413431       2.0747265267827846       0.8317546751554763
24                       590                      304.66713211382114       0.3042584877702077       0.6957415122295318       1.2017767706323672       0.39309861505260985
24                       600                      304.66713211382114       0.30209996021674407      0.6979000397833305       0.3264131387023716       -0.04615621944507177
25.999999999999996       500                      304.66713211382114       0.29023905172530184      0.7097609482747149       2.8971063772451062       -1.8988485732050562
25.999999999999996       509.99999999999994       304.66713211382114       0.29033580439685047      0.7096641956031411       2.006757541036566        -2.341202892545002
25.999999999999996       519.9999999999999        304.66713211382114       0.29185032528878635      0.7081496747111442       1.1174679139785137       -2.783323873438827
25.999999999999996       530                      304.66713211382114       0.2944550358640297       0.7055449641361067       0.23110443602162042      3.0583726959146116
25.999999999999996       540                      304.66713211382114       0.29768803868578525      0.7023119613140931       -0.6511877354441755      2.617837259282964
25.999999999999996       550                      304.66713211382114       0.3009178949004336       0.6990821051006377       -1.52901605056386        2.178297265321875
25.999999999999996       560                      304.66713211382114       0.30355451040307413      0.6964454895969052       -2.4028892189787645      1.7397068363556487
25.999999999999996       570                      304.66713211382114       0.3051029972727541       0.6948970027273371       3.0091990451670174       1.3017528394754427
25.999999999999996       580                      304.66713211382114       0.3052945236427032       0.6947054763574787       2.139320034958515        0.8641014849193482
25.999999999999996       590                      304.66713211382114       0.30411182155613253      0.6958881784439074       1.2687678149000294       0.4262676180220286
25.999999999999996       600                      304.66713211382114       0.3017362577685142       0.6982637422316571       0.39581653176333714      -0.012111634029516614
28                       500                      304.66713211382114       0.2880764995883613       0.7119235004116169       2.957720403597507        -1.8691774388228801
28                       509.99999999999994       304.66713211382114       0.2880099715001702       0.7119900284998764       2.0672386736687427       -2.311196856758024
28                       519.9999999999999        304.66713211382114       0.2895823094095065       0.7104176905905027       1.1776143185662806       -2.7530572073303046
28                       530                      304.66713211382114       0.2924189120097005       0.7075810879902148       0.29121225010803214      3.0889575895306596
28                       540                      304.66713211382114       0.2960294802842619       0.7039705197159042       -0.5906839146393228      2.6488228048324083
28                       550                      304.66713211382114       0.2997210916808486       0.7002789083190807       -1.4675875993813792      2.2098106729630755
28                       560                      304.66713211382114       0.3027925956698318       0.6972074043301837       -2.3399249078218864      1.7718859052649059
28                       570                      304.66713211382114       0.30471044213714943      0.6952895578629298       3.0743008715009013       1.3347389611500495
28                       580                      304.66713211382114       0.3051135974602962       0.6948864025397693       2.2067954017935185       0.8979402965590187
28                       590                      304.66713211382114       0.3039605776321779       0.6960394223679746       1.3388101309140512       0.4610193812404534
28                       600                      304.66713211382114       0.30144250496766595      0.6985574950325528       0.4684694031634753       0.02355401687415471
30                       500                      304.66713211382114       0.2858444545841422       0.7141555454158577       3.021735252796061        -1.837952175159125
30                       509.99999999999994       304.66713211382114       0.2855834746051814       0.7144165253950016       2.130855221175751        -2.2797497960337667
30                       519.9999999999999        304.66713211382114       0.287141159987547        0.7128588400123897       1.2408790926176083       -2.7213513911041414
30                       530                      304.66713211382114       0.2902039048077085       0.7097960951923636       0.3543339953821787       3.1210132664492334
30                       540                      304.66713211382114       0.2941991584053911       0.705800841594633        -0.5273647986608645      2.6812416471625014
30                       550                      304.66713211382114       0.2983593548391545       0.7016406451606587       -1.403410149032415       2.2427601799651926
30                       560                      304.66713211382114       0.3019172675044677       0.6980827324954885       -2.2742355660469245      1.8054840083314536
30                       570                      304.66713211382114       0.3042301099799979       0.6957698900198962       -3.141154581308946       1.3691443584270164
30                       580                      304.66713211382114       0.30491575557830813      0.6950842444216052       2.277037024708139        0.9332511083933764
30                       590                      304.66713211382114       0.303838076258603        0.6961619237416253       1.4117427569123124       0.4972585906872011
30                       600                      304.66713211382114       0.3012174972053011       0.6987825027945384       0.5440922089875673       0.06074656136920142
31.999999999999996       500                      304.66713211382114       0.28356282147830614      0.7164371785217438       3.0886347444661078       -1.8053881487220527
31.999999999999996       509.99999999999994       304.66713211382114       0.28304243256507594      0.7169575674349101       2.1976364952856846       -2.2468407567741866
31.999999999999996       519.9999999999999        304.66713211382114       0.28455027431507357      0.7154497256850192       1.3073105419002755       -2.6881404752154334
31.999999999999996       530                      304.66713211382114       0.28779455482751676      0.7122054451725288       0.4204225056769174       -3.1287071617124815
31.999999999999996       540                      304.66713211382114       0.2921546760059362       0.7078453239941185       -0.46112672212463135     2.7151038527189435
31.999999999999996       550                      304.66713211382114       0.2967945340825132       0.7032054659174768       -1.3364410025335987      2.277116183352843
31.999999999999996       560                      304.66713211382114       0.3008708852595906       0.6991291147405395       -2.205922838843316       1.8404931856440876
31.999999999999996       570                      304.66713211382114       0.3036628065646718       0.6963371934353053       -3.070802442893791       1.4049533460952721
31.999999999999996       580                      304.66713211382114       0.3046668671053707       0.6953331328945512       2.34992147368064         0.9699712234085293
31.999999999999996       590                      304.66713211382114       0.3037292577409971       0.6962707422589582       1.4874724008025393       0.5349930172137076
31.999999999999996       600                      304.66713211382114       0.30103925949876975      0.6989607405009693       0.6226555651120211       0.09944625090402952
33.99999999999999        500                      304.66713211382114       0.28123149793307234      0.7187685020669661       -3.124387979981102       -1.7713897733822124
33.99999999999999        509.99999999999994       304.66713211382114       0.28039437350142166      0.7196056264985058       2.267654330963392        -2.212486384670071
33.99999999999999        519.9999999999999        304.66713211382114       0.2817987242022368       0.7182012757977071       1.3769014354059228       -2.6534968394998737
33.99999999999999        530                      304.66713211382114       0.2851841036644694       0.7148158963360578       0.48965313385045406      -3.0937697252787544
33.99999999999999        540                      304.66713211382114       0.28990687979733476      0.7100931202027062       -0.39195821290780475     2.750397120797015
33.99999999999999        550                      304.66713211382114       0.29501290369023914      0.7049870963094915       -1.266788944137062       2.31287120855205
33.99999999999999        560                      304.66713211382114       0.29966075805198616      0.7003392419478943       -2.1349311122088706      1.87690781444579
33.99999999999999        570                      304.66713211382114       0.30296127968475967      0.697038720315324        -2.997860955799433       1.4421536748962545
33.99999999999999        580                      304.66713211382114       0.30435488379904135      0.6956451162010563       2.4253843960388592       1.008107606753091
33.99999999999999        590                      304.66713211382114       0.3036370975544193       0.6963629024456546       1.5658975830055628       0.574167506155289
33.99999999999999        600                      304.66713211382114       0.3009242406774494       0.6990757593225944       0.704234658492842        0.13970426888371884
36                       500                      304.66713211382114       0.27892402853941306      0.7210759714606623       -3.0509800518188976      -1.7359522329916728
36                       509.99999999999994       304.66713211382114       0.2776844728003702       0.7223155271996478       2.3411000080220954       -2.1766366458458966
36                       519.9999999999999        304.66713211382114       0.27889914894730794      0.7211008510527618       1.4498211836039618       -2.617320048460689
36                       530                      304.66713211382114       0.28237703609576903      0.7176229639043273       0.5619872784816405       -3.0573449741786485
36                       540                      304.66713211382114       0.28740233541769594      0.7125976645823597       -0.3198133514844665      2.7871523945176575
36                       550                      304.66713211382114       0.2930412717565306       0.7069587282434651       -1.1941048980474709      2.350147478315083
36                       560                      304.66713211382114       0.29823072397009004      0.7017692760298805       -2.061181578809855       1.9147802685633568
36                       570                      304.66713211382114       0.30209541545984236      0.6979045845403002       -2.922307227227984       1.4807693871870278
36                       580                      304.66713211382114       0.3039702432670382       0.6960297567331075       2.503472992526387        1.0476810357527095
36                       590                      304.66713211382114       0.30353719339545293      0.6964628066045427       1.6469763471158683       0.6147955773709428
36                       600                      304.66713211382114       0.3008981748666956       0.6991018251323045       0.7886491471280568       0.18148669955197166
38                       500                      304.66713211382114       0.2765991974241094       0.7234008025759117       -2.974094438381255       -1.6989684004538155
38                       509.99999999999994       304.66713211382114       0.27487475337248474      0.7251252466271736       2.417992861653118        -2.1392332891740593
38                       519.9999999999999        304.66713211382114       0.2758569943124147       0.7241430056876826       1.5262412883954002       -2.579635098856832
38                       530                      304.66713211382114       0.27933463956345866      0.7206653604367071       0.6378063150736856       -3.019316484661218
38                       540                      304.66713211382114       0.284647424431665        0.7153525755683025       -0.24436717259458346     2.825485228344779
38                       550                      304.66713211382114       0.2907796593759824       0.7092203406242418       -1.1185035869744637      2.3889085096010803
38                       560                      304.66713211382114       0.29658437829857376      0.7034156217013895       -1.984660770038724       1.9540851361156881
38                       570                      304.66713211382114       0.30107753556705596      0.698922464432858        -2.8439811431940583      1.520885418329298
38                       580                      304.66713211382114       0.30347832083156034      0.6965216791684985       2.584323066305844        1.088759581403976
38                       590                      304.66713211382114       0.3034343925896917       0.6965656074103312       1.7308569745550901       0.6569352793442662
38                       600                      304.66713211382114       0.30093550065650315      0.6990644993435426       0.8757793114967632       0.22475727201792045
39.99999999999999        500                      304.66713211382114       0.2743066962065444       0.7256933037935345       -2.8937364510993677      -1.6604765091912257
39.99999999999999        509.99999999999994       304.66713211382114       0.2720357997371156       0.72796420026292         2.4985033407600707       -2.1002660848691614
39.99999999999999        519.9999999999999        304.66713211382114       0.2726605146742043       0.7273394853256541       1.6062878418111175       -2.540300271384669
39.99999999999999        530                      304.66713211382114       0.2760878127859205       0.7239121872141193       0.7171984371021781       -2.9797106802508884
39.99999999999999        540                      304.66713211382114       0.2816222803954691       0.7183777196045502       -0.16563137778268092     2.8654023836938425
39.99999999999999        550                      304.66713211382114       0.28822145850889413      0.7117785414911163       -1.0398555452223888      2.429191185644189
39.99999999999999        560                      304.66713211382114       0.2946670392075901       0.7053329607924735       -1.905222741185181       1.9949480964973698
39.99999999999999        570                      304.66713211382114       0.29984604950459065      0.7001539504953701       -2.7629306967456952      1.562517480455236
39.99999999999999        580                      304.66713211382114       0.3028724282761646       0.697127571723877        2.667735459618806        1.131276860735662
39.99999999999999        590                      304.66713211382114       0.3032720660916253       0.6967279339083683       1.817395362432447        0.7005996207893173
39.99999999999999        600                      304.66713211382114       0.30099536728870935      0.6990046327112207       0.9658310735620205       0.26961001486771363
42                       500                      304.66713211382114       0.27208372698743505      0.727916273012672        -2.8097511571921054      -1.6203956884071562
42                       509.99999999999994       304.66713211382114       0.26916189976464433      0.7308381002352322       2.582912210278256        -2.059620566038867
42                       519.9999999999999        304.66713211382114       0.2693572708859847       0.7306427291140616       1.6902153961576145       -2.499293094898614
42                       530                      304.66713211382114       0.2726179024098814       0.7273820975900744       0.8002339997771039       -2.9384149288823416
42                       540                      304.66713211382114       0.27832528885711216      0.7216747111427746       -0.08327772690900935     2.906996078663835
42                       550                      304.66713211382114       0.28537543948638594      0.7146245605136565       -0.9578201070596966      2.4711361646198773
42                       560                      304.66713211382114       0.29244577759835544      0.7075542224015824       -1.8226604294985316      2.0374401779236724
42                       570                      304.66713211382114       0.29834278865886493      0.701657211341166        -2.679048728162331       1.6056701740614199
42                       580                      304.66713211382114       0.30208612519108774      0.6979138748090568       2.753889207095225        1.1753726956471273
42                       590                      304.66713211382114       0.30305267097605026      0.6969473290238593       1.9066439134270283       0.7457822532752235
42                       600                      304.66713211382114       0.30111241646005693      0.6988875835393722       1.0587276008410131       0.31603811222066847
44                       500                      304.66713211382114       0.2699674263118094       0.7300325736882046       -2.7220332186471183      -1.5786491844180963
44                       509.99999999999994       304.66713211382114       0.2662973281093778       0.7337026718906171       2.6713272792496436       -2.0172685900297753
44                       519.9999999999999        304.66713211382114       0.26593110680391374      0.7340688931958927       1.7783343401309883       -2.4564912506410224
44                       530                      304.66713211382114       0.268937479326171        0.7310625206738691       0.887315331527815        -2.8953632321930955
44                       540                      304.66713211382114       0.2747311094116786       0.7252688905881842       0.002819520401758468     2.9503275051151827
44                       550                      304.66713211382114       0.28217330578712646      0.7178266942127468       -0.8722995192307716      2.514782306577923
44                       560                      304.66713211382114       0.2899048602379421       0.7100951397620302       -1.7369592899054858      2.0815539766090874
44                       570                      304.66713211382114       0.2965791936887422       0.7034208063112787       -2.5921623632227937      1.650477839997082
44                       580                      304.66713211382114       0.3010746651884441       0.6989253348115574       2.842905193068583        1.2210521707589042
44                       590                      304.66713211382114       0.3027175300737159       0.6972824699263692       1.9986395580222938       0.7925578654772236
44                       600                      304.66713211382114       0.3012473605824701       0.6987526394175911       1.1543676093929873       0.36408008073701176
45.99999999999999        500                      304.66713211382114       0.26800790607378777      0.7319920939263028       -2.630292385098151       -1.5351787064788915
45.99999999999999        509.99999999999994       304.66713211382114       0.26350739705370696      0.7364926029464348       2.7639209121971806       -1.9731055718792083
45.99999999999999        519.9999999999999        304.66713211382114       0.26244892627279237      0.7375510737271105       1.8708122716561988       -2.411835622059851
45.99999999999999        530                      304.66713211382114       0.26505631936053875      0.7349436806394237       0.9788782631143721       -2.8503775115385537
45.99999999999999        540                      304.66713211382114       0.2708145564321681       0.7291854435678139       0.09308721441253989      2.9955355334735465
45.99999999999999        550                      304.66713211382114       0.2786080049649081       0.7213919950349833       -0.7829107028666457      2.5602929678589423
45.99999999999999        560                      304.66713211382114       0.28697634777707576      0.7130236522228632       -1.647759821355824       2.1274450803784983
45.99999999999999        570                      304.66713211382114       0.29445874082178036      0.705541259178261        -2.5021126237234825      1.696977233285415
45.99999999999999        580                      304.66713211382114       0.29980548307745875      0.7001945169225682       2.9348178293939764       1.2684021160533419
45.99999999999999        590                      304.66713211382114       0.3022299988203548       0.6977700011797849       2.0933944333314565       0.8409722306069549
45.99999999999999        600                      304.66713211382114       0.3013562005689212       0.698643799431098        1.2529227985731217       0.4138010967811158
48                       500                      304.66713211382114       0.2662316901255915       0.7337683098744829       -2.5346418354314624      -1.4899445825221573
48                       509.99999999999994       304.66713211382114       0.2607908114399932       0.7392091885600571       2.8610218179312246       -1.9270395772312132
48                       519.9999999999999        304.66713211382114       0.25893009489379254      0.7410699051061567       1.9679539500099432       -2.365233934903624
48                       530                      304.66713211382114       0.260996253315459        0.739003746684355        1.0749889298478972       -2.8034343907982464
48                       540                      304.66713211382114       0.2665893799185056       0.7334106200814301       0.1877826271457891       3.0427102266357484
48                       550                      304.66713211382114       0.2746494784132428       0.7253505215868522       -0.6894007142459486      2.607714113429069
48                       560                      304.66713211382114       0.28361009151861183      0.7163899084813858       -1.5548173175954496      2.1752194653575225
48                       570                      304.66713211382114       0.29191725793969253      0.70808274206025         -2.408812988559462       1.7452548454521162
48                       580                      304.66713211382114       0.298225484846941        0.7017745151528774       3.02994034255179         1.3175484424351005
48                       590                      304.66713211382114       0.30155276919818597      0.6984472308021419       2.1911488410280406       0.8911635418291558
48                       600                      304.66713211382114       0.3014020635240426       0.6985979364759748       1.3544342807682281       0.4653029316158958
50                       500                      304.66713211382114       0.2646944362271837       0.7353055637727139       -2.434566796539245       -1.442735696079154
50                       509.99999999999994       304.66713211382114       0.2582352773859529       0.7417647226140777       2.962949971643294        -1.8789285336238073
50                       519.9999999999999        304.66713211382114       0.25540173536243715      0.7445982646376089       2.070192157252256        -2.3164963851632923
50                       530                      304.66713211382114       0.2567804758929565       0.7432195241070756       1.1763259300957514       -2.7542805072372247
50                       540                      304.66713211382114       0.2620859464440934       0.7379140535557245       0.2875751350585451       3.0921202612195633
50                       550                      304.66713211382114       0.27027452384418293      0.7297254761557911       -0.5912632780140897      2.657319672782417
50                       560                      304.66713211382114       0.2797939356431968       0.7202060643569165       -1.4575354997784844      2.2251181090837093
50                       570                      304.66713211382114       0.2889790837432135       0.7110209162567073       -2.3113990694046165      1.7956624592547157
50                       580                      304.66713211382114       0.29626384003248135      0.7037361599677041       3.128414393852512        1.3685962406637768
50                       590                      304.66713211382114       0.30060027149528123      0.6993997285045965       2.2922586489292627       0.9432957484960275