% Model:              nanoholes_rw_sweep.mph
% Version:            COMSOL 6.0.0.405
% Date:               Apr 3 2024, 23:07
% Table:              Table 1 - Global Evaluation 1
% r (nm)                 h_meta (nm)              freq (THz)               reflection (1)           transmission (1)         reflection_phi (rad)     transmission_phi (rad)
19.999999999999996       700                      304.66713211382114       0.3047429712596104       0.6952570287404247       -2.3749889137623095      1.7523695320031303
19.999999999999996       710                      304.66713211382114       0.30574128221001584      0.6942587177898872       3.0307176422210125       1.3121144568035712
19.999999999999996       720                      304.66713211382114       0.3058740020531903       0.6941259979775004       2.15404377780269         0.8720280830119503
19.999999999999996       729.9999999999999        304.66713211382114       0.30508261915378904      0.6949173808462548       1.276829910389364        0.43181808831541557
19.999999999999996       739.9999999999999        304.66713211382114       0.3035382327228078       0.6964617672771596       0.3980824824203877       -0.008748468567875901
19.999999999999996       749.9999999999999        304.66713211382114       0.30154743062528205      0.6984525693747091       -0.4830581488956432      -0.449893535908036
19.999999999999996       759.9999999999999        304.66713211382114       0.29944879829307935      0.7005512017072505       -1.3670117591233228      -0.8916750461623588
19.999999999999996       770                      304.66713211382114       0.297645542324489        0.7023544576754945       -2.2536590429048706      -1.3340777739561804
19.999999999999996       780                      304.66713211382114       0.29649438076701795      0.7035056192329631       3.1407801298497717       -1.7769534268309306
19.999999999999996       790                      304.66713211382114       0.2962156179877324       0.7037843820119836       2.2510403335652076       -2.2200570721798334
19.999999999999996       800                      304.66713211382114       0.29684337203486577      0.7031566279248955       1.3615827363443391       -2.6631250313279824
22                       700                      304.66713211382114       0.30413925902087313      0.695860740978755        -2.3069321387433135      1.7870409276433497
22                       710                      304.66713211382114       0.30543478008445285      0.694565219915634        3.1005979373760586       1.3474535234493221
22                       720                      304.66713211382114       0.30572963333300235      0.6942703666670988       2.22595078572793         0.9081146497745333
22                       729.9999999999999        304.66713211382114       0.30494457424990845      0.6950554257559589       1.3510253792349627       0.4686973346746488
22                       739.9999999999999        304.66713211382114       0.30326457373478416      0.6967354262649416       0.4744312715484671       0.028904765392164775
22                       749.9999999999999        304.66713211382114       0.3009547338090819       0.6990452661907107       -0.4048788333717167      -0.41155311314610854
22                       759.9999999999999        304.66713211382114       0.2984834714505726       0.7015165285493624       -1.287465271128781       -0.8527532382526231
22                       770                      304.66713211382114       0.29627119710582583      0.7037288028939713       -2.1733045526879504      -1.2947104810293262
22                       780                      304.66713211382114       0.2947925094224325       0.7052074905777231       -3.061743194982531       -1.737228552925295
22                       790                      304.66713211382114       0.29428529738513104      0.7057147026150877       2.331632062223238        -2.1800755366169016
22                       800                      304.66713211382114       0.29487480673966143      0.7051251932604788       1.4418627953984209       -2.622925883371231
24                       700                      304.66713211382114       0.3034174884879273       0.6965825115119776       -2.2350775635772653      1.823644619035968
24                       710                      304.66713211382114       0.30508502712910723      0.6949149728707447       -3.108982885655983       1.3847416548242717
24                       720                      304.66713211382114       0.3055735453457502       0.6944264546542281       2.301775352958701        0.9462013456442997
24                       729.9999999999999        304.66713211382114       0.30484846322523557      0.6951515367748116       1.4292689893919608       0.5076303081041529
24                       739.9999999999999        304.66713211382114       0.3030243389554892       0.6969756610445721       0.5549239575191048       0.06864238638830618
24                       749.9999999999999        304.66713211382114       0.30044810385882653      0.6995518961411111       -0.32232288630122846     -0.37106195814753645
24                       759.9999999999999        304.66713211382114       0.29756205884495035      0.7024379411550944       -1.2033110567289567      -0.8116065608174564
24                       770                      304.66713211382114       0.2949339552834214       0.7050660447159484       -2.0881154759512643      -1.2530419808190523
24                       780                      304.66713211382114       0.29304306899176197      0.7069569310083182       -2.976002868466034       -1.6951509298730403
24                       790                      304.66713211382114       0.29225854399656875      0.7077414560036246       2.4172703514168625       -2.1377031626371292
24                       800                      304.66713211382114       0.2927511456270642       0.7072488543732314       1.5272404075372348       -2.5803361003549425
25.999999999999996       700                      304.66713211382114       0.30254292425380525      0.6974570757468317       -2.1596815590275398      1.8621155254826478
25.999999999999996       710                      304.66713211382114       0.3045966562671942       0.6954033437329408       -3.031774261023558       1.4239242330348063
25.999999999999996       720                      304.66713211382114       0.30538418904293924      0.6946158109572759       2.381220355171647        0.9861919943596511
25.999999999999996       729.9999999999999        304.66713211382114       0.30477338628014666      0.6952266137201831       1.5111547065415551       0.5484832751195707
25.999999999999996       739.9999999999999        304.66713211382114       0.3028622854522086       0.6971377145476025       0.6394397667323919       0.11040685550036773
25.999999999999996       749.9999999999999        304.66713211382114       0.30000973119870283      0.6999902688013193       -0.23557547422542488     -0.32847945418005126
25.999999999999996       759.9999999999999        304.66713211382114       0.29673283916967164      0.7032671608306099       -1.1147251021757463      -0.7683120279342536
25.999999999999996       770                      304.66713211382114       0.2936103139050312       0.7063896860951531       -1.9981754707524084      -1.2091328303028566
25.999999999999996       780                      304.66713211382114       0.291290060315803        0.7087099396843398       -2.885467100127324       -1.6507921637961618
25.999999999999996       790                      304.66713211382114       0.29016047597254213      0.7098395240275929       2.507938917839229        -2.0930390701079213
25.999999999999996       800                      304.66713211382114       0.2904671382480623       0.7095328617520849       1.6176047528937185       -2.5353942191751995
28                       700                      304.66713211382114       0.3014831280653204       0.698516871934543        -2.080749436215745       1.9023870860106615
28                       710                      304.66713211382114       0.303997438432845        0.6960025615671153       -2.9510827230279757      1.46493985065789
28                       720                      304.66713211382114       0.30512539822938367      0.694874601770698        2.464214814361319        1.0280535635923893
28                       729.9999999999999        304.66713211382114       0.30465239773484254      0.6953476022654097       1.5966366268978651       0.5912298931928253
28                       739.9999999999999        304.66713211382114       0.30274632948591296      0.6972536705145661       0.7275965182437135       0.1540740656961029
28                       749.9999999999999        304.66713211382114       0.29967940868848253      0.7003205913104742       -0.14486277401781478     -0.2839079078360126
28                       759.9999999999999        304.66713211382114       0.29600286734660464      0.7039971326533228       -1.021800425194573       -0.7229234083548406
28                       770                      304.66713211382114       0.2924023206496253       0.7075976793503749       -1.903735008318605       -1.16305792111119
28                       780                      304.66713211382114       0.2895724141171107       0.7104275858823095       -2.7901558194135863      -1.6042100177889724
28                       790                      304.66713211382114       0.288017560730319        0.7119824392699611       2.6034417546736246       -2.046093662038105
28                       800                      304.66713211382114       0.28806891841321364      0.7119310815865632       1.7128390019344573       -2.4881658745629993
30                       700                      304.66713211382114       0.3002292303467573       0.6997707696531902       -1.998333479108158       1.9445293565414417
30                       710                      304.66713211382114       0.30324881457462793      0.6967511854253258       -2.867089048055095       1.5077204144412604
30                       720                      304.66713211382114       0.3047781034016596       0.6952218965984246       2.5504093355556336       1.0716725963384337
30                       729.9999999999999        304.66713211382114       0.304579254901905        0.6954207450978747       1.6855185508950772       0.6357811426865159
30                       739.9999999999999        304.66713211382114       0.30269096346195157      0.6973090365377284       0.8194128458251648       0.19965181187427483
30                       749.9999999999999        304.66713211382114       0.29945424611430155      0.7005457538855228       -0.0502883149618204      -0.23737333098143498
30                       759.9999999999999        304.66713211382114       0.29540895709716936      0.7045910429028099       -0.9247525459296486      -0.6754947006744098
30                       770                      304.66713211382114       0.2913061954191372       0.7086938045806299       -1.8048115385761034      -1.1148960891138564
30                       780                      304.66713211382114       0.28789253593551883      0.7121074640652144       -2.6901216151883984      -1.555463032936329
30                       790                      304.66713211382114       0.2858590882212018       0.7141409117784807       2.7039553287549953       -1.996873309422077
30                       800                      304.66713211382114       0.2855758223556035       0.714424177644578        1.8130967195123353       -2.43866026086409
31.999999999999996       700                      304.66713211382114       0.2987625511286682       0.701237448871404        -1.9125531253627475      1.9883875485486824
31.999999999999996       710                      304.66713211382114       0.30231435066362106      0.6976856493363179       -2.7796949177531998      1.5523166290292918
31.999999999999996       720                      304.66713211382114       0.3043342063825844       0.6956657936173282       2.63991284384262         1.1170616000351599
31.999999999999996       729.9999999999999        304.66713211382114       0.30446675073174484      0.6955332492685289       1.7778142550588714       0.6821748708900999
31.999999999999996       739.9999999999999        304.66713211382114       0.3027010680355949       0.6972989319644135       0.9146689017237067       0.24704787848222998
31.999999999999996       749.9999999999999        304.66713211382114       0.29934670633797267      0.7006532936618552       0.048012631056363074     -0.18893087602826172
31.999999999999996       759.9999999999999        304.66713211382114       0.2949604301218471       0.7050395698789005       -0.8236953087212263      -0.6260645088299546
31.999999999999996       770                      304.66713211382114       0.2903544901502758       0.7096455098498617       -1.7015455558667743      -1.0646451081890163
31.999999999999996       780                      304.66713211382114       0.28633980803841985      0.7136601919617737       -2.585357113631775       -1.5045088121803274
31.999999999999996       790                      304.66713211382114       0.2837403233856983       0.7162596766145052       2.809259788452172        -1.945456378428714
31.999999999999996       800                      304.66713211382114       0.28299337046303197      0.7170066295369677       1.9184032950717487       -2.386866388782286
33.99999999999999        700                      304.66713211382114       0.29703344254723146      0.7029665574529076       -1.8231653689333573      2.034097304562014
33.99999999999999        710                      304.66713211382114       0.301191457627277        0.6988085423726891       -2.688972223542302       1.5986628581793716
33.99999999999999        720                      304.66713211382114       0.30375856807757057      0.6962414319220518       2.732732601401956        1.1642469222548852
33.99999999999999        729.9999999999999        304.66713211382114       0.3043152368555263       0.6956847631559796       1.8733661369365096       0.7303382839707394
33.99999999999999        739.9999999999999        304.66713211382114       0.30274628430149997      0.6972537156982431       1.013275623968714        0.29627055907587185
33.99999999999999        749.9999999999999        304.66713211382114       0.2993496385181026       0.7006503614818218       0.14991007267110207      -0.13859127727301146
33.99999999999999        759.9999999999999        304.66713211382114       0.29466428007753576      0.7053357199223977       -0.7186523907607001      -0.5746591608126507
33.99999999999999        770                      304.66713211382114       0.2895442610610543       0.7104557389391863       -1.5939074997637175      -1.0122890439221774
33.99999999999999        780                      304.66713211382114       0.28492279756044847      0.7150772024404586       -2.4759214890268386      -1.451385965199042
33.99999999999999        790                      304.66713211382114       0.28166328581292893      0.7183367141872369       2.91964171959757         -1.8917387530597707
33.99999999999999        800                      304.66713211382114       0.2803956972679764       0.7196043027319313       2.0288019290258505       -2.332795789069209
36                       700                      304.66713211382114       0.2949990904356015       0.7050009095640679       -1.7301085287491516      2.0816797353949394
36                       710                      304.66713211382114       0.2998217316140844       0.7001782683858726       -2.5948788707621824      1.646832823071649
36                       720                      304.66713211382114       0.3030250066614008       0.6969749933380028       2.828851457643471        1.2132487411493618
36                       729.9999999999999        304.66713211382114       0.3040731875303522       0.6959268124697726       1.9721194952467502       0.7803026596696548
36                       739.9999999999999        304.66713211382114       0.30281898915499567      0.6971810108450952       1.1152860366766972       0.3473477599944527
36                       749.9999999999999        304.66713211382114       0.29946646904874497      0.7005335309512795       0.25537131391735984      -0.08636563210958277
36                       759.9999999999999        304.66713211382114       0.29456984950370624      0.7054301504963753       -0.6098257819935738      -0.5213019042408168
36                       770                      304.66713211382114       0.28897782800384303      0.7110221719959146       -1.4820912533574986      -0.9578751503795037
36                       780                      304.66713211382114       0.28367238688934865      0.7163276131107633       -2.3617850733244725      -1.3960836106074974
36                       790                      304.66713211382114       0.2796975093151595       0.7203024906848537       3.0351196731510988       -1.835753149009541
36                       800                      304.66713211382114       0.27777847365465236      0.7222215263455988       2.1445580925837997       -2.2763263912915996
38                       700                      304.66713211382114       0.2926602448565338       0.7073397551432409       -1.6334096821181197      2.131127831386541
38                       710                      304.66713211382114       0.2981626787159684       0.7018373212841423       -2.497162292365027       1.6968957684542791
38                       720                      304.66713211382114       0.30204865399785175      0.6979513460021655       2.928270576403635        1.264062876450343
38                       729.9999999999999        304.66713211382114       0.303726901106053        0.6962730988943787       2.074150869941309        0.8320919440145991
38                       739.9999999999999        304.66713211382114       0.30290072686249725      0.6970992731375092       1.2205335816173248       0.4002436472034802
38                       749.9999999999999        304.66713211382114       0.299692153233146        0.7003078467667857       0.3643290251501268       -0.032213487243356646
38                       759.9999999999999        304.66713211382114       0.29466592072169134      0.7053340792783792       -0.49712910887903333     -0.4659058748738472
38                       770                      304.66713211382114       0.28863297942586486      0.7113670205739764       -1.365957421770244       -0.9013349506716262
38                       780                      304.66713211382114       0.2826974056550996       0.7173025943458224       -2.243005352201222       -1.3385691787128726
38                       790                      304.66713211382114       0.27790589867783755      0.7220941013220119       -3.127587884828306       -1.7774680991199974
38                       800                      304.66713211382114       0.27520416745891935      0.7247958325413452       2.2657087240300977       -2.2174606937845738
39.99999999999999        700                      304.66713211382114       0.28997092191900137      0.7100290780810351       -1.5326839450974936      2.182579419121017
39.99999999999999        710                      304.66713211382114       0.2961683514747406       0.7038316485252327       -2.3958786263574536      1.7488597602234808
39.99999999999999        720                      304.66713211382114       0.30083338563507095      0.6991666143649469       3.0310993381399047       1.3167405290356728
39.99999999999999        729.9999999999999        304.66713211382114       0.30323243069187106      0.6967675693082326       2.1795165112225936       0.8857667835133316
39.99999999999999        739.9999999999999        304.66713211382114       0.3029349465500314       0.6970650534499276       1.329140372164862        0.4550359848217743
39.99999999999999        749.9999999999999        304.66713211382114       0.30000393187917057      0.6999960681207139       0.4766947328419437       0.02383670304206474
39.99999999999999        759.9999999999999        304.66713211382114       0.2949525132968078       0.7050474867032245       -0.3807669334919092      -0.4085479032085611
39.99999999999999        770                      304.66713211382114       0.288547640174401        0.7114523598256415       -1.2457301798931526      -0.8426968671022819
39.99999999999999        780                      304.66713211382114       0.28196792680203236      0.7180320731982495       -2.1194803122344275      -1.2787908123387621
39.99999999999999        790                      304.66713211382114       0.27634046099243254      0.723659539007785        -3.0017641369973758      -1.7167633548064714
39.99999999999999        800                      304.66713211382114       0.27280044427583683      0.7271995557241175       2.39248646696367         -2.15615193193855
42                       700                      304.66713211382114       0.28686269716774165      0.7131373028324413       -1.4277365793278551      2.2361172053777394
42                       710                      304.66713211382114       0.29380527339991347      0.7061947266006794       -2.2907136092828844      1.8028237625350934
42                       720                      304.66713211382114       0.29930258813247873      0.7006974118673891       3.137587330315446        1.371422508944975
42                       729.9999999999999        304.66713211382114       0.30251747051804245      0.6974825294841839       2.288205865941471        0.941326870983511
42                       739.9999999999999        304.66713211382114       0.3028789714762354       0.6971210285238876       1.4411175768206697       0.5117941497609246
42                       749.9999999999999        304.66713211382114       0.30039299251567775      0.6996070074843912       0.5925452426777089       0.08188596814230428
42                       759.9999999999999        304.66713211382114       0.29541881123549507      0.70458118876472         -0.26053045027004335     -0.3490982919269924
42                       770                      304.66713211382114       0.288744639707146        0.7112553602930087       -1.1213226939686942      -0.7818931612377622
42                       780                      304.66713211382114       0.2815620152023816       0.7184379847978314       -1.9913089202453982      -1.216747797262676
42                       790                      304.66713211382114       0.2750698158137933       0.7249301841859053       -2.8707258815486263      -1.6536486290427823
42                       800                      304.66713211382114       0.27054129777613883      0.7294587022236574       2.5251398915354897       -2.0922417634328756
44                       700                      304.66713211382114       0.28333583925489203      0.7166641607452542       -1.3182034121368469      2.291869025797241
44                       710                      304.66713211382114       0.2909902360485571       0.7090097639516602       -2.1813549747238743      1.8589657923350835
44                       720                      304.66713211382114       0.29738113894957346      0.7026188610504643       -3.035389028184047       1.4281525095703504
44                       729.9999999999999        304.66713211382114       0.3015014773324497       0.6984985226675878       2.40049224577601         0.998917576952307
44                       739.9999999999999        304.66713211382114       0.30270080281413636      0.6972991971858364       1.5564277517799097       0.5705123988606814
44                       749.9999999999999        304.66713211382114       0.3007680910638348       0.6992319089361638       0.7118724720906997       0.14195822866776675
44                       759.9999999999999        304.66713211382114       0.29605240848585096      0.7039475915141217       -0.1368460130587524      -0.2876211233275737
44                       770                      304.66713211382114       0.28925655864346483      0.7107434413567222       -0.9928449140087009      -0.7189027634000047
44                       780                      304.66713211382114       0.28152348281239153      0.7184765171874076       -1.8583899817799112      -1.1523242445161204
44                       790                      304.66713211382114       0.2741878375652987       0.725812162434852        -2.734332647710878       -1.5880429811706724
44                       800                      304.66713211382114       0.2685990448594846       0.7314009551405024       2.6637034559185513       -2.0257115373560044
45.99999999999999        700                      304.66713211382114       0.27935398716649945      0.720646012833525        -1.2037221160860145      2.3499659993647652
45.99999999999999        710                      304.66713211382114       0.2876836231409587       0.7123163768589357       -2.0676089361524         1.9173263689765787
45.99999999999999        720                      304.66713211382114       0.29502286979287057      0.7049771302071614       -2.921102107991124       1.4870672277138088
45.99999999999999        729.9999999999999        304.66713211382114       0.3001460416565064       0.6998539583437166       2.516418081944932        1.058628743417541
45.99999999999999        739.9999999999999        304.66713211382114       0.3023010288544403       0.6976989711443833       1.6753000867227248       0.6313157052350192
45.99999999999999        749.9999999999999        304.66713211382114       0.30111218796265143      0.6988878120373183       0.8346798086476508       0.20409728058937884
45.99999999999999        759.9999999999999        304.66713211382114       0.29681599950151083      0.7031840004988614       -0.009306421939447047    -0.22394738715781534
45.99999999999999        770                      304.66713211382114       0.29003189810819796      0.7099681018918867       -0.8602957533306506      -0.6536483604313768
45.99999999999999        780                      304.66713211382114       0.2818737971660465       0.7181262028340673       -1.7208474261159172      -1.0854957447593054
45.99999999999999        790                      304.66713211382114       0.2736927214212835       0.7263072785787382       -2.5926064988140713      -1.5198600947589394
45.99999999999999        800                      304.66713211382114       0.26699376387998897      0.733006236119975        2.8084195106037395       -1.9564127493677674
48                       700                      304.66713211382114       0.2748904826604183       0.725109517339516        -1.0838298504880042      2.4105541784670916
48                       710                      304.66713211382114       0.2838651094408728       0.7161348905592746       -1.948857263832991       1.9781388983462247
48                       720                      304.66713211382114       0.29213116086536256      0.7078688391348233       -2.8024722414139096      1.548274038866682
48                       729.9999999999999        304.66713211382114       0.2983640709618265       0.7016359290379147       2.6363492857992408       1.1205741871371184
48                       739.9999999999999        304.66713211382114       0.3015879713604883       0.6984120286401132       1.7976422137717036       0.6942294741396812
48                       749.9999999999999        304.66713211382114       0.30134217967437554      0.6986578203257314       0.9608711188077518       0.2683451255295351
48                       759.9999999999999        304.66713211382114       0.29765970041466794      0.7023402995854803       0.12170518783811214      -0.15811550518536993
48                       770                      304.66713211382114       0.2910907430452625       0.7089092569545087       -0.723940059406393       -0.5861613714413937
48                       780                      304.66713211382114       0.2826452262207409       0.717354773777994        -1.5789285870582692      -1.0163055239436338
48                       790                      304.66713211382114       0.2737180030095885       0.7262819969906863       -2.445626867721408       -1.4490945370339718
48                       800                      304.66713211382114       0.2658840494983775       0.7341159505013882       2.959186685367841        -1.8843610191544864
50                       700                      304.66713211382114       0.2699219253695341       0.7300780746305903       -0.9576449130250705      2.4739990607451983
50                       710                      304.66713211382114       0.2794191055385564       0.7205808944614961       -1.8245093590527013      2.0416768920178545
50                       720                      304.66713211382114       0.2886231838398187       0.7113768161602031       -2.6787065391337594      1.6121343057209048
50                       729.9999999999999        304.66713211382114       0.2960267762285745       0.7039732237713413       2.7607483231941825       1.184990638354135
50                       739.9999999999999        304.66713211382114       0.30048980563589894      0.6995101943639884       1.9243900585151317       0.7596402289325819
50                       749.9999999999999        304.66713211382114       0.30135481519942936      0.6986451848008335       1.0911784262057196       0.3350607238603329
50                       759.9999999999999        304.66713211382114       0.298517331561877        0.7014826684379879       0.2566302654914415       -0.08988675340842697
50                       770                      304.66713211382114       0.29235158918307363      0.7076484108169558       -0.5832217292396835      -0.5160909407561155
50                       780                      304.66713211382114       0.28383501210062057      0.7161649878993186       -1.4322230339645756      -0.9444298487481261