% Model:              nanoholes_rw_sweep.mph
% Version:            COMSOL 6.0.0.405
% Date:               Apr 1 2024, 00:17
% Table:              Table 1 - Global Evaluation 1
% r (nm)                 h_meta (nm)              freq (THz)               reflection (1)           transmission (1)         reflection_phi (rad)     transmission_phi (rad)
19.999999999999996       500                      304.66713211382114       0.29622064550774685      0.7037793544920092       2.733820578713922        -1.9793216405755367
19.999999999999996       509.99999999999994       304.66713211382114       0.29651960669181127      0.7034803933079835       1.844094358676117        -2.4224328726895816
19.999999999999996       519.9999999999999        304.66713211382114       0.2976897816482755       0.7023102183516843       0.9553760742239346       -2.865304932890976
19.999999999999996       530                      304.66713211382114       0.29950836772425427      0.7004916322755619       0.06877190539017722      2.975486890216991
19.999999999999996       540                      304.66713211382114       0.30162188085421326      0.6983781191458196       -0.8150892767970545      2.533729969501695
19.999999999999996       550                      304.66713211382114       0.3036500845188485       0.6963499154811021       -1.6961155660440765      2.0926062738817834
19.999999999999996       560                      304.66713211382114       0.3051500647600034       0.6948499352399212       -2.5747573932864802      1.6520701693867494
19.999999999999996       570                      304.66713211382114       0.3058820433781107       0.6941179566219854       2.831356772808755        1.2118883370090963
19.999999999999996       580                      304.66713211382114       0.30571278505806687      0.6942872149381406       1.9545855246166175       0.771791615209496
19.999999999999996       590                      304.66713211382114       0.3046709913624136       0.695329008637612        1.0770438836883331       0.3314908395137431
19.999999999999996       600                      304.66713211382114       0.3029472992358794       0.6970527007642481       0.1976043204469558       -0.1092558104099658
19.999999999999996       610                      304.66713211382114       0.30087996714735593      0.6991200328527715       -0.684397718691344       -0.5505657327815018
19.999999999999996       619.9999999999999        304.66713211382114       0.2988171134710351       0.7011828865289695       -1.569251303727579       -0.9925628572625002
19.999999999999996       629.9999999999999        304.66713211382114       0.2972093495173408       0.702790650482553        -2.4566630898067623      -1.4351380343976368
19.999999999999996       639.9999999999999        304.66713211382114       0.2963127380614487       0.7036872619387088       2.9373538903768233       -1.8781238734211452
19.999999999999996       650                      304.66713211382114       0.2963252119377654       0.7036747880622886       2.047531515081123        -2.3212532640944517
19.999999999999996       660                      304.66713211382114       0.29722827501163046      0.702771724988808        1.1583853110965112       -2.7642239079171085
19.999999999999996       670                      304.66713211382114       0.29889878377370743      0.701101216226197        0.27100225789959037      3.0763842721472887
19.999999999999996       680                      304.66713211382114       0.3009530436269562       0.6990469563730877       -0.6137536610419028      2.6344184104360915
19.999999999999996       690                      304.66713211382114       0.3030240961791981       0.696975903820788        -1.4956831456216368      2.1930889841228205
19.999999999999996       700                      304.66713211382114       0.30474297125960065      0.6952570287403477       -2.3749889137619395      1.7523695320031774
19.999999999999996       710                      304.66713211382114       0.305741282210044        0.6942587177899293       3.030717642220815        1.3121144568036303
19.999999999999996       720                      304.66713211382114       0.3058740020416094       0.6941259979877021       2.1540437777962365       0.8720280829969866
19.999999999999996       729.9999999999999        304.66713211382114       0.30508261915368023      0.6949173808463525       1.2768299103893568       0.4318180883154341
19.999999999999996       739.9999999999999        304.66713211382114       0.3035382327230269       0.6964617672770238       0.39808248242041633      -0.008748468567959617
19.999999999999996       749.9999999999999        304.66713211382114       0.30154743062509926      0.6984525693747856       -0.4830581488955496      -0.4498935359080022
19.999999999999996       759.9999999999999        304.66713211382114       0.2994487982927451       0.7005512017072391       -1.3670117591228843      -0.8916750461621766
19.999999999999996       770                      304.66713211382114       0.29764554232460966      0.7023544576753417       -2.2536590429046046      -1.3340777739559047
19.999999999999996       780                      304.66713211382114       0.2964943807670531       0.7035056192330029       3.1407801298494675       -1.7769534268309937
19.999999999999996       790                      304.66713211382114       0.2962156179876194       0.7037843820124708       2.25104033356499         -2.220057072179831
19.999999999999996       800                      304.66713211382114       0.2968433720230635       0.7031566279241728       1.3615827363295097       -2.663125031338842
25                       500                      304.66713211382114       0.2912917246763132       0.7087082753236801       2.8679063457205514       -1.9131812766916525
25                       509.99999999999994       304.66713211382114       0.2914366850964156       0.7085633149034966       1.9776731941327383       -2.355672893487108
25                       519.9999999999999        304.66713211382114       0.29291601401268763      0.7070839859873322       1.088523587233011        -2.7979404307336435
25                       530                      304.66713211382114       0.29539830732945144      0.7046016926704209       0.20219908830993866      3.0436505607761335
25                       540                      304.66713211382114       0.2984485566000108       0.7015514434000796       -0.6802954649848018      2.602897477994112
25                       550                      304.66713211382114       0.30146681172844836      0.698533188271669        -1.5586847000778796      2.1630911416314285
25                       560                      304.66713211382114       0.30387917655762814      0.6961208234425341       -2.433296374814461       1.7241657889871345
25                       570                      304.66713211382114       0.30525497632403         0.6947450236762727       2.977804106510264        1.2858486125074273
25                       580                      304.66713211382114       0.30537193336954693      0.6946280666303638       2.106671438246878        0.8477421101174271
25                       590                      304.66713211382114       0.30419148792305245      0.6958085120771302       1.234863177599602        0.4094805978395838
25                       600                      304.66713211382114       0.30190937906698706      0.6980906209329503       0.3606900352093431       -0.029343252042600167
25                       610                      304.66713211382114       0.2989903352017615       0.7010096647984762       -0.5170257925662161      -0.46899046954229207
25                       619.9999999999999        304.66713211382114       0.2959093248006188       0.7040906751994702       -1.3987479860730938      -0.909556971113772
25                       629.9999999999999        304.66713211382114       0.2933014087919008       0.7066985912080225       -2.2844697858111758      -1.351037054264449
25                       639.9999999999999        304.66713211382114       0.29162344131921625      0.7083765586809845       3.1100043142639238       -1.7931819602363785
25                       650                      304.66713211382114       0.2912288026266363       0.7087711973732957       2.21982482304426         -2.2356757528763245
25                       660                      304.66713211382114       0.29217328265598397      0.7078267173437863       1.3299866037690549       -2.678068951674022
25                       670                      304.66713211382114       0.29431522401016547      0.705684775989877        0.4423226433558041       -3.119983594978511
25                       680                      304.66713211382114       0.29718166850617167      0.7028183314947537       -0.4418217089028849      2.72206962392437
25                       690                      304.66713211382114       0.30027735173298825      0.6997226482670057       -1.3218237598555098      2.2818813374440206
25                       700                      304.66713211382114       0.3030078449909645       0.6969921550090588       -2.1978318002334176      1.8426445027349345
25                       710                      304.66713211382114       0.30484313062510887      0.6951568693749105       -3.0708114226065093      1.4041041152371823
25                       720                      304.66713211382114       0.3054816924436673       0.6945183075563279       2.341085140321055        0.9659570289020334
25                       729.9999999999999        304.66713211382114       0.30480647166342384      0.6951935283340498       1.4697067587509252       0.5278025245284232
25                       739.9999999999999        304.66713211382114       0.30294540321682367      0.6970545967831407       0.5967011337984246       0.08926564769059382
25                       749.9999999999999        304.66713211382114       0.3002188006878268       0.6997811993119822       -0.279481715787723       -0.35002775979885026
25                       759.9999999999999        304.66713211382114       0.29713424281345246      0.7028657571865898       -1.1595631096887535      -0.7902277477088131
25                       770                      304.66713211382114       0.29427106044808954      0.7057289395517549       -2.043725849270061       -1.2313638410773982
25                       780                      304.66713211382114       0.2921593814608048       0.707840618539061        -2.9313716769465343      -1.6732494485616014
25                       790                      304.66713211382114       0.29121396015253337      0.7087860398474567       2.461999425385782        -2.115646078883788
25                       800                      304.66713211382114       0.2916241727380677       0.7083758272615723       1.5718031696910788       -2.5581523134122945
30                       500                      304.66713211382114       0.285844454584204        0.7141555454158917       3.021735252796139        -1.8379521751591241
30                       509.99999999999994       304.66713211382114       0.28558347460527955      0.7144165253949463       2.1308552211758327       -2.279749796033768
30                       519.9999999999999        304.66713211382114       0.2871411599875186       0.712858840012471        1.2408790926175974       -2.7213513911040828
30                       530                      304.66713211382114       0.2902039048077646       0.7097960951922856       0.3543339953821394       3.1210132664491477
30                       540                      304.66713211382114       0.2941991584053822       0.7058008415946135       -0.5273647986611789      2.6812416471624454
30                       550                      304.66713211382114       0.29835935483923354      0.7016406451606535       -1.4034101490323416      2.2427601799653
30                       560                      304.66713211382114       0.30191726750442155      0.698082732495547        -2.274235566046627       1.8054840083314823
30                       570                      304.66713211382114       0.30423010998006794      0.695769890019915        -3.14115458130891        1.3691443584270084
30                       580                      304.66713211382114       0.3049157555782642       0.6950842444215792       2.2770370247078833       0.9332511083934069
30                       590                      304.66713211382114       0.30383807625872183      0.696161923741624        1.4117427569118515       0.49725859068711215
30                       600                      304.66713211382114       0.30121749720533914      0.6987825027946317       0.5440922089874612       0.06074656136904627
30                       610                      304.66713211382114       0.29746861370709354      0.7025313862927569       -0.32787779775865133     -0.37679875190819073
30                       619.9999999999999        304.66713211382114       0.29328565768375464      0.7067143423167711       -1.2051346150171838      -0.8155654677859688
30                       629.9999999999999        304.66713211382114       0.2894599842712282       0.710540015728887        -2.0879862504909146      -1.255592868778374
30                       639.9999999999999        304.66713211382114       0.28667321202618806      0.7133267879738051       -2.975399714825719       -1.6966152640158638
30                       650                      304.66713211382114       0.28548902550417077      0.7145109744957077       2.4174051132765726       -2.1383051605286902
30                       660                      304.66713211382114       0.28614586748203424      0.7138541325187231       1.5267655107367872       -2.580036814454156
30                       670                      304.66713211382114       0.28850905754931006      0.7114909424507647       0.6381825526819372       -3.0213450141445377
30                       680                      304.66713211382114       0.29210644708710787      0.7078935529130984       -0.24609501618594348     2.8215042563096335
30                       690                      304.66713211382114       0.29627618755908935      0.7037238124411404       -1.1249865796475254      2.382379351426789
30                       700                      304.66713211382114       0.3002292303467823       0.6997707696530766       -1.9983334791079743      1.9445293565414883
30                       710                      304.66713211382114       0.30324881457454284      0.6967511854253956       -2.8670890480550977      1.5077204144414604
30                       720                      304.66713211382114       0.3047781034016177       0.6952218965985034       2.550409335555021        1.0716725963385405
30                       729.9999999999999        304.66713211382114       0.30457925490202287      0.6954207450980657       1.6855185508957071       0.6357811426868974
30                       739.9999999999999        304.66713211382114       0.30269096346193886      0.6973090365377358       0.8194128458256922       0.19965181187465023
30                       749.9999999999999        304.66713211382114       0.2994542461145296       0.7005457538855413       -0.05028831496170146     -0.23737333098141392
30                       759.9999999999999        304.66713211382114       0.2954089570973248       0.7045910429029641       -0.9247525459299201      -0.6754947006742485
30                       770                      304.66713211382114       0.29130619541951536      0.7086938045807653       -1.804811538575407       -1.1148960891138207
30                       780                      304.66713211382114       0.28789253593646874      0.712107464065616        -2.690121615186811       -1.5554630329380406
30                       790                      304.66713211382114       0.28585908822121525      0.714140911778511        2.7039553287548643       -1.996873309422066
30                       800                      304.66713211382114       0.2855758223555295       0.7144241776445807       1.8130967195123984       -2.438660260864084
35                       500                      304.66713211382114       0.2800909397561069       0.7199090602439048       -3.0880970728433073      -1.7538498087811547
35                       509.99999999999994       304.66713211382114       0.27904679525133336      0.7209532047487669       2.303953846137041        -2.1947390585732593
35                       519.9999999999999        304.66713211382114       0.28038429382709656      0.7196157061728645       1.4129319953105934       -2.6356111900890866
35                       530                      304.66713211382114       0.28380931985989044      0.7161906801398789       0.5254050117408657       -3.0757344165405547
35                       540                      304.66713211382114       0.28868438219388953      0.7113156178059724       -0.35623273151629387     2.76861322003111
35                       550                      304.66713211382114       0.2940782259644054       0.7059217740356769       -1.2307702782840242      2.331340445820511
35                       560                      304.66713211382114       0.2989736744328033       0.7010263255673421       -2.098385734450809       1.8956648984789695
35                       570                      304.66713211382114       0.3025439242430267       0.6974560757569911       -2.9603738653880494      1.4612940751780155
35                       580                      304.66713211382114       0.30417160856885406      0.6958283914313046       2.4641336531615394       1.027723734160398
35                       590                      304.66713211382114       0.3035834229749823       0.6964165770248958       1.6060850975060912       0.5942894890051221
35                       600                      304.66713211382114       0.30090631062629797      0.6990936893736294       0.7460866846465858       0.16040993570942155
35                       610                      304.66713211382114       0.29655622755344185      0.7034437724464304       -0.11867819633457276     -0.27461979065619685
35                       619.9999999999999        304.66713211382114       0.291306247141172        0.7086937528588272       -0.9897157583907525      -0.7110864714705827
35                       629.9999999999999        304.66713211382114       0.28606952842803735      0.7139304715720077       -1.8680021334671577      -1.1491991017077776
35                       639.9999999999999        304.66713211382114       0.28184580238794543      0.7181541976120932       -2.752844354606111       -1.588732137426307
35                       650                      304.66713211382114       0.2794258152678369       0.7205741847320477       2.6407581878059476       -2.0292797536064064
35                       660                      304.66713211382114       0.2792810245179815       0.7207189754820303       1.7491803533382895       -2.4702829245304097
35                       670                      304.66713211382114       0.28149110645586567      0.7185088935440602       0.8592384390743246       -2.910909010752754
35                       680                      304.66713211382114       0.28555288046396166      0.714447119536103        -0.026290517297590302    2.9325635957581646
35                       690                      304.66713211382114       0.2907138705069693       0.7092861294927862       -0.9053583313357074      2.49427886350496
35                       700                      304.66713211382114       0.2960496384739661       0.7039503615249921       -1.7770753592609523      2.0576556946342635
35                       710                      304.66713211382114       0.3005443609988819       0.699455639001481        -2.642343805609061       1.6225390052006436
35                       720                      304.66713211382114       0.30341591175968763      0.6965840882409647       2.780429668416746        1.1885372557724823
35                       729.9999999999999        304.66713211382114       0.3041913410971656       0.6958086589026437       1.9223834303317167       0.7551174095126556
35                       739.9999999999999        304.66713211382114       0.3027775744557394       0.6972224255441091       1.0638870505474491       0.3215913788513092
35                       749.9999999999999        304.66713211382114       0.29938080492956903      0.7006191950704105       0.20221014708222834      -0.11272415721593092
35                       759.9999999999999        304.66713211382114       0.29461040369007807      0.7053895963101735       -0.6647066362385996      -0.5482075682763494
35                       770                      304.66713211382114       0.28923523033072274      0.7107647696688317       -1.5385471449725148      -0.9853417755076986
35                       780                      304.66713211382114       0.28427803469157303      0.7157219653082155       -2.4194263598937553      -1.4240090208667124
35                       790                      304.66713211382114       0.2806480440483502       0.7193519559518099       2.976737763218071        -1.8640393642901434
35                       800                      304.66713211382114       0.27907672624224916      0.720923273758423        2.08600559630602         -2.3048570861302404
39.99999999999999        500                      304.66713211382114       0.2743066962064568       0.7256933037936396       -2.893736451098978       -1.660476509191067
39.99999999999999        509.99999999999994       304.66713211382114       0.27203579973698855      0.7279642002630312       2.49850334076039         -2.1002660848689416
39.99999999999999        519.9999999999999        304.66713211382114       0.2726605146741618       0.7273394853254772       1.6062878418106676       -2.5403002713846137
39.99999999999999        530                      304.66713211382114       0.27608781278596434      0.7239121872140762       0.71719843710234         -2.979710680250952
39.99999999999999        540                      304.66713211382114       0.2816222803954836       0.7183777196045228       -0.1656313777825934      2.865402383693889
39.99999999999999        550                      304.66713211382114       0.28822145850878517      0.7117785414914083       -1.0398555452223877      2.4291911856439983
39.99999999999999        560                      304.66713211382114       0.2946670392075092       0.7053329607924423       -1.9052227411848988      1.9949480964973645
39.99999999999999        570                      304.66713211382114       0.2998460495045801       0.7001539504953579       -2.7629306967454985      1.5625174804552753
39.99999999999999        580                      304.66713211382114       0.3028724282762416       0.6971275717238583       2.667735459618837        1.1312768607358124
39.99999999999999        590                      304.66713211382114       0.30327206609159696      0.696727933908201        1.8173953624325894       0.7005996207892217
39.99999999999999        600                      304.66713211382114       0.3009953672887461       0.6990046327113069       0.9658310735620027       0.2696100148677054
39.99999999999999        610                      304.66713211382114       0.2964231115135285       0.7035768884866062       0.10992004485570761      -0.1624355305470659
39.99999999999999        619.9999999999999        304.66713211382114       0.29028924902083425      0.7097107509791116       -0.7529874332474967      -0.5960970923270761
39.99999999999999        629.9999999999999        304.66713211382114       0.28362551675964026      0.7163744832403923       -1.6243866853463096      -1.0316960665538868
39.99999999999999        639.9999999999999        304.66713211382114       0.27764684989803834      0.7223531501020546       -2.504544988039778       -1.4691924411757016
39.99999999999999        650                      304.66713211382114       0.27348258207390197      0.7265174179258046       2.891081451554815        -1.9082903847676491
39.99999999999999        660                      304.66713211382114       0.2719381608594986       0.7280618391405057       1.9994277524054433       -2.348202310735752
39.99999999999999        670                      304.66713211382114       0.2733192966997027       0.7266807033002345       1.1076500796571875       -2.7881511667295658
39.99999999999999        680                      304.66713211382114       0.27736396736074265      0.7226360326393378       0.21986720742742397      3.0559109597319316
39.99999999999999        690                      304.66713211382114       0.2832753065233093       0.7167246934767226       -0.660799881413973       2.6182767322073417
39.99999999999999        700                      304.66713211382114       0.2899709219151241       0.7100290780847041       -1.5326839450832273      2.1825794191257804
39.99999999999999        710                      304.66713211382114       0.2961683514745384       0.7038316485253182       -2.3958786263574257      1.7488597602236164
39.99999999999999        720                      304.66713211382114       0.30083338563500883      0.6991666143649019       3.031099338139597        1.3167405290355594
39.99999999999999        729.9999999999999        304.66713211382114       0.30323243069173655      0.6967675693080024       2.179516511222566        0.8857667835134114
39.99999999999999        739.9999999999999        304.66713211382114       0.30293494655000625      0.6970650534500057       1.3291403721645596       0.4550359848214902
39.99999999999999        749.9999999999999        304.66713211382114       0.30000393187939073      0.6999960681207279       0.4766947328420542       0.02383670304212022
39.99999999999999        759.9999999999999        304.66713211382114       0.29495251329668526      0.7050474867032374       -0.38076693349197677     -0.4085479032086748
39.99999999999999        770                      304.66713211382114       0.2885476401743643       0.7114523598257347       -1.2457301798932674      -0.8426968671024523
39.99999999999999        780                      304.66713211382114       0.28196792680155863      0.7180320731983733       -2.119480312234552       -1.2787908123382823
39.99999999999999        790                      304.66713211382114       0.2763404609924036       0.7236595390077142       -3.0017641369973806      -1.7167633548065417
39.99999999999999        800                      304.66713211382114       0.27280044427594596      0.7271995557241153       2.3924864669636197       -2.156151931938838
45                       500                      304.66713211382114       0.2689715880803991       0.7310284119196043       -2.6766454459270688      -1.557115722721462
45                       509.99999999999994       304.66713211382114       0.26489182379255827      0.7351081762074058       2.7170759275370506       -1.9954116123100905
45                       519.9999999999999        304.66713211382114       0.26419846525208174      0.7358015347479979       1.8239770912180517       -2.4344108586771163
45                       530                      304.66713211382114       0.2670207220500026       0.7329792779498187       0.9325374306645552       -2.8731153798813387
45                       540                      304.66713211382114       0.2727994103558533       0.7272005896442176       0.04742014047742621      2.972701701404416
45                       550                      304.66713211382114       0.28043355954404725      0.7195664404559271       -0.828064110371481       2.5373214530115162
45                       560                      304.66713211382114       0.2884847904219495       0.7115152095780017       -1.6928490843849018      2.104257926910768
45                       570                      304.66713211382114       0.29555927222997125      0.7044407277701527       -2.547576322627535       1.6734838135641033
45                       580                      304.66713211382114       0.3004749079292462       0.6995250920706606       2.8885372114396852       1.2445326531614325
45                       590                      304.66713211382114       0.3024851105609263       0.6975148894391555       2.045598225106747        0.8165556398848062
45                       600                      304.66713211382114       0.30130171692212426      0.6986982830777869       1.2032534837338436       0.38873034101922366
45                       610                      304.66713211382114       0.2970955493389253       0.7029044506609222       0.35760231897674255      -0.039886875400479
45                       619.9999999999999        304.66713211382114       0.29050523065220374      0.7094947693475376       -0.4949343934836147      -0.4701650629067001
45                       629.9999999999999        304.66713211382114       0.28261291228086854      0.717387087718964        -1.3569052483994373      -0.902583282634381
45                       639.9999999999999        304.66713211382114       0.2747332995390766       0.7252667004608779       -2.229439472070309       -1.337324391999996
45                       650                      304.66713211382114       0.26835583578302685      0.7316441642172815       -3.112203164541501       -1.774251876262717
45                       660                      304.66713211382114       0.26466019310120553      0.7353398068986916       2.280883299918038        -2.212657987563728
45                       670                      304.66713211382114       0.2643644406697031       0.7356355593302097       1.3876924511910749       -2.651672122242006
45                       680                      304.66713211382114       0.2676013857777689       0.7323986142220852       0.4967241017133925       -3.0902509827967224
45                       690                      304.66713211382114       0.27366345623715854      0.7263365437626065       -0.38738053624370045     2.7557456347565905