% Model:              nanoholes_rw_sweep.mph
% Version:            COMSOL 6.0.0.405
% Date:               Apr 5 2024, 12:13
% Table:              Table 1 - Global Evaluation 1
% r (nm)                 h_meta (nm)              freq (THz)               reflection (1)           transmission (1)         reflection_phi (rad)     transmission_phi (rad)
19.999999999999996       900                      304.66713211382114       0.30010989230794505      0.6998901076919954       -1.1650455445988153      -0.7908428886068091
19.999999999999996       910                      304.66713211382114       0.2981746338559468       0.7018253661437297       -2.0508807208219606      -1.2330591441828445
19.999999999999996       920                      304.66713211382114       0.2967854157193783       0.7032145842806365       -2.939061141353577       -1.6758072932467267
19.999999999999996       930                      304.66713211382114       0.29620004461732         0.7037999553826917       2.4545828670676024       -2.1188567601260684
19.999999999999996       940                      304.66713211382114       0.29653657601649375      0.7034634239834887       1.5648948504157592       -2.56196010255172
19.999999999999996       949.9999999999999        304.66713211382114       0.2977685161298581       0.7022314838701217       0.6762359593615009       -3.004819810287429
19.999999999999996       960                      304.66713211382114       0.29960892847072274      0.7003910715293385       -0.2102640685341971      2.836002427233113
19.999999999999996       969.9999999999999        304.66713211382114       0.3017207022361578       0.6982792977637373       -1.0939850780426603      2.3942467069262103
19.999999999999996       980                      304.66713211382114       0.30370670459456317      0.696293295405175        -1.9749408010476333      1.9531636648991595
19.999999999999996       989.9999999999999        304.66713211382114       0.30519510747582         0.6948048925241515       -2.853446782516254       1.5126471357967735
19.999999999999996       1000                     304.66713211382114       0.30588648006708813      0.6941135199329672       2.5527072388081136       1.0724917913233392
22                       900                      304.66713211382114       0.2993471431210305       0.7006528568789134       -1.0714434305543326      -0.7448684150283323
22                       910                      304.66713211382114       0.29700445617977855      0.7029955438201848       -1.9561607271682875      -1.1865609341248935
22                       920                      304.66713211382114       0.2952090751505506       0.7047909248493224       -2.8437534005974805      -1.6289013158893677
22                       930                      304.66713211382114       0.2943306332162511       0.7056693667838433       2.54995015255466         -2.071663560752809
22                       940                      304.66713211382114       0.29454878657079403      0.705451213429282        1.659986816001393        -2.5145507915788463
22                       949.9999999999999        304.66713211382114       0.29579877782699093      0.7042012221730819       0.7710277205354636       -2.957205992031383
22                       960                      304.66713211382114       0.2978582666807607       0.7021417333193438       -0.11563271714894044     2.883821904145271
22                       969.9999999999999        304.66713211382114       0.30033944874571616      0.6996605512542498       -0.9990168896956766      2.4424512413153456
22                       980                      304.66713211382114       0.30272634213400246      0.6972736578658201       -1.8791195885917733      2.0018279767690093
22                       989.9999999999999        304.66713211382114       0.3046176342490097       0.6953823657509424       -2.756297300666169       1.5618712290512637
22                       1000                     304.66713211382114       0.305637643113555        0.6943623568865193       2.6516698306015964       1.122401270116081
24                       900                      304.66713211382114       0.29869372806207706      0.7013062719371466       -0.9723843756870268      -0.6962704660638869
24                       910                      304.66713211382114       0.29587865440303496      0.7041213455970528       -1.8557856707618854      -1.1373739547512873
24                       920                      304.66713211382114       0.2936597857978267       0.7063402142021223       -2.7425734732353018      -1.5792268845528887
24                       930                      304.66713211382114       0.29240373383359136      0.7075962661662302       2.6512721583308476       -2.021664711084699
24                       940                      304.66713211382114       0.29242169349484554      0.7075783065050489       1.7611128634892053       -2.4642945827976654
24                       949.9999999999999        304.66713211382114       0.2936496498165236       0.7063503501834553       0.8718031460601006       -2.906730289619957
24                       960                      304.66713211382114       0.29588938982707247      0.704110610172924        -0.015162673672998363    2.9345238387449806
24                       969.9999999999999        304.66713211382114       0.2986977826643932       0.7013022173354233       -0.8984660219287202      2.4934599786635747
24                       980                      304.66713211382114       0.3015239889514802       0.6984760110485609       -1.7779204416074024      2.0532465207859047
24                       989.9999999999999        304.66713211382114       0.30387779090991063      0.6961222090904448       -2.6538642077851864      1.6138727766926961
24                       1000                     304.66713211382114       0.30529468776998103      0.6947053122299189       2.755920222368861        1.175091925112498
25.999999999999996       900                      304.66713211382114       0.29812790363633884      0.7018720963637355       -0.8683434535385107      -0.6451678331197955
25.999999999999996       910                      304.66713211382114       0.29487886751430037      0.7051211324856611       -1.7500245910012069      -1.085591011293553
25.999999999999996       920                      304.66713211382114       0.29217029512021075      0.7078297048797925       -2.635824436854815       -1.5269157094286474
25.999999999999996       930                      304.66713211382114       0.2904747634114509       0.709525236588321        2.758382302713841        -1.9689655713333858
25.999999999999996       940                      304.66713211382114       0.2901676455153793       0.7098323544846822       1.8680554205408058       -2.411310806047207
25.999999999999996       949.9999999999999        304.66713211382114       0.29130642451389543      0.7086935754860577       0.9782857561711291       -2.8535407617247865
25.999999999999996       960                      304.66713211382114       0.2936549657699667       0.7063450342298888       0.09098656047181863      2.987953149981393
25.999999999999996       969.9999999999999        304.66713211382114       0.2967849907281886       0.7032150092719651       -0.7925066850477135      2.5471197884607046
25.999999999999996       980                      304.66713211382114       0.3000812979486494       0.6999187020513525       -1.671458406494902       2.1073548826934037
25.999999999999996       989.9999999999999        304.66713211382114       0.3029403126714811       0.6970596873286466       -2.546323285284776       1.668505377770186
25.999999999999996       1000                     304.66713211382114       0.30479837542631727      0.6952016245737469       2.8651602450872047       1.2304264250915278
28                       900                      304.66713211382114       0.29773740978379265      0.7022625902160194       -0.759404223763845       -0.5916334277766145
28                       910                      304.66713211382114       0.29401182115426855      0.7059881788455046       -1.639062116098946       -1.031273774007087
28                       920                      304.66713211382114       0.29074158437668574      0.7092584156233939       -2.5234548709420146      -1.471972001774009
28                       930                      304.66713211382114       0.28854446723128124      0.7114555327686823       2.8713944598085686       -1.9135682536297827
28                       940                      304.66713211382114       0.28785675390606313      0.7121432460938675       1.9807582276801614       -2.3556791302807287
28                       949.9999999999999        304.66713211382114       0.28879485752573447      0.71120514247423         1.0906841389201956       -2.7975959723671555
28                       960                      304.66713211382114       0.2911693674508773       0.7088306325490663       0.2028564403759148       3.0441150466568065
28                       969.9999999999999        304.66713211382114       0.2945652882445918       0.7054347117556035       -0.6810036844731222      2.6035041929310028
28                       980                      304.66713211382114       0.29831255602966766      0.7016874439703833       -1.5597530022896409      2.164098952784607
28                       989.9999999999999        304.66713211382114       0.30172688468618625      0.6982731153139121       -2.433737729292158       1.725762318340147
28                       1000                     304.66713211382114       0.3041171260096573       0.6958828739904084       2.9792971809637105       1.288338647394993
30                       900                      304.66713211382114       0.297501297150993        0.7024987028489551       -0.645781397618702       -0.5357427838801865
30                       910                      304.66713211382114       0.2933338738556256       0.706666126144281        -1.5230063154498388      -0.9745004047233056
30                       920                      304.66713211382114       0.2894962553342951       0.7105037446658576       -2.4057915375308294      -1.4145075356168064
30                       930                      304.66713211382114       0.28669871357917703      0.7133012864207408       2.9899712028374887       -1.8555475653473092
30                       940                      304.66713211382114       0.2854852529010124       0.7145147470990294       2.099723219167154        -2.2971848012875133
30                       949.9999999999999        304.66713211382114       0.2861345312752422       0.7138654687246583       1.2089476381785218       -2.7389592938559555
30                       960                      304.66713211382114       0.288462929651606        0.7115370703483365       0.32040058654218445      3.1029282879879214
30                       969.9999999999999        304.66713211382114       0.2920814229010081       0.7079185770990876       -0.5639692724903619      2.662572903757701
30                       980                      304.66713211382114       0.29623965549459613      0.7037603445055498       -1.4428849094289586      2.223442271323732
30                       989.9999999999999        304.66713211382114       0.30019702836312756      0.6998029716369741       -2.3163064815606678      1.7855442696398616
30                       1000                     304.66713211382114       0.3032267412237571       0.696773258775976        3.098201418729465        1.3488012081713177
31.999999999999996       900                      304.66713211382114       0.29743985055625405      0.7025601494437754       -0.5276449869403913      -0.47753899144455525
31.999999999999996       910                      304.66713211382114       0.2928476400248788       0.7071523599750624       -1.4021007921467572      -0.9153472325733599
31.999999999999996       920                      304.66713211382114       0.2884212306732127       0.7115787693268796       -2.2827868968350113      -1.3545294570062785
31.999999999999996       930                      304.66713211382114       0.2849530125723435       0.7150469874277156       3.1142241317214325       -1.79492799030546
31.999999999999996       940                      304.66713211382114       0.2831503561581755       0.7168496438419835       2.2242806572364824       -2.2361494480618234
31.999999999999996       949.9999999999999        304.66713211382114       0.28334338143542853      0.7166566185646257       1.333179467729792        -2.6776119725243746
31.999999999999996       960                      304.66713211382114       0.2855400402366588       0.7144599597634222       0.4438036043055725       -3.1187041692763415
31.999999999999996       969.9999999999999        304.66713211382114       0.2892670523971089       0.7107329476029586       -0.4413498381972562      2.724279371885754
31.999999999999996       980                      304.66713211382114       0.2938153981884721       0.7061846018114634       -1.320706223663164       2.28538675521913
31.999999999999996       989.9999999999999        304.66713211382114       0.2983716545129241       0.7016283454869916       -2.193792693331564       1.847923477190722
31.999999999999996       1000                     304.66713211382114       0.30205304659992505      0.6979469534000171       -3.061423715717807       1.4117283562958483
33.99999999999999        900                      304.66713211382114       0.29756217238938226      0.7024378276107134       -0.40525864651668997     -0.4170947429441511
33.99999999999999        910                      304.66713211382114       0.29258913803668635      0.707410861963194        -1.2764536611837498      -0.8537760395255007
33.99999999999999        920                      304.66713211382114       0.2875731717358202       0.7124268282642279       -2.1544998102501283      -1.2920371358553981
33.99999999999999        930                      304.66713211382114       0.2833796105372116       0.7166203894629352       -3.0390003042465414      -1.731699284587937
33.99999999999999        940                      304.66713211382114       0.2808763649647238       0.7191236350352868       2.3549653272599054       -2.1723579579378467
33.99999999999999        949.9999999999999        304.66713211382114       0.2805301328281367       0.7194698671704312       1.4636119203432438       -2.6135033200681246
33.99999999999999        960                      304.66713211382114       0.2823977314139727       0.7176022685862528       0.573410640132284        -3.0543948100962157
33.99999999999999        969.9999999999999        304.66713211382114       0.28615463690040543      0.7138453630994674       -0.3128618686006452      2.7887318328406647
33.99999999999999        980                      304.66713211382114       0.2910366739436401       0.7089633260564592       -1.1929350178970592      2.35004147770957
33.99999999999999        989.9999999999999        304.66713211382114       0.29613690399986436      0.7038630959988539       -2.066104961034581       1.912914189692359
33.99999999999999        1000                     304.66713211382114       0.3005320221245931       0.699467977875389        -2.933047625811371       1.4771985266295151
36                       900                      304.66713211382114       0.297831378044256        0.7021686219557152       -0.27855935156046774     -0.3543553415613775
36                       910                      304.66713211382114       0.2925936910551964       0.707406308944727        -1.1462044051295743      -0.7898757655558258
36                       920                      304.66713211382114       0.28700535242969255      0.7129946475701091       -2.0210874030826953      -1.2270164620205921
36                       930                      304.66713211382114       0.28206760489091515      0.7179323951091562       -2.903422110075793       -1.665822500491887
36                       940                      304.66713211382114       0.2787438365405198       0.7212561634594601       2.49167956007293         -2.105865683112621
36                       949.9999999999999        304.66713211382114       0.27767951369115224      0.7223204863089169       1.6003044893583263       -2.546598421759521
36                       960                      304.66713211382114       0.27910877454445066      0.720891225455615        0.7092206942317293       -2.9872778972929894
36                       969.9999999999999        304.66713211382114       0.28272434200017993      0.7172756579995834       -0.17818604349523678     2.8560114035891826
36                       980                      304.66713211382114       0.2878455719867307       0.7121544280132123       -1.0594134599935345      2.4174464664572914
36                       989.9999999999999        304.66713211382114       0.2934915354936513       0.7065084645069635       -1.9331258823119255      1.9805348119560073
36                       1000                     304.66713211382114       0.2985880477560561       0.7014119522438921       -2.799639892896007       1.5453065520181226
38                       900                      304.66713211382114       0.29831111144755573      0.7016888885523954       -0.14762417472843392     -0.28929620244292703
38                       910                      304.66713211382114       0.29284995407615         0.7071500459236019       -1.011269616338491       -0.7235167068726146
38                       920                      304.66713211382114       0.28673405408345914      0.7132659459167802       -1.8825425804416844      -1.1594613916989955
38                       930                      304.66713211382114       0.2810200354415213       0.7189799645584586       -2.762008821984753       -1.5972495493736418
38                       940                      304.66713211382114       0.2768162505274769       0.723183749472571        2.634628358724921        -2.0365483702513822
38                       949.9999999999999        304.66713211382114       0.2748940869272171       0.7251059130730041       1.743657682460797        -2.4767696101335344
38                       960                      304.66713211382114       0.2757090935169806       0.7242909064848274       0.8517893463111785       -2.9171884161535084
38                       969.9999999999999        304.66713211382114       0.2790342308607037       0.7209657691391117       -0.03703797684890878     2.926193710682157
38                       980                      304.66713211382114       0.2842614033786648       0.7157385966215087       -0.9196270064107431      2.4877506971491488
38                       989.9999999999999        304.66713211382114       0.29036408081883086      0.7096359191813059       -1.7942971049056318      2.051037775794842
38                       1000                     304.66713211382114       0.29620796238610114      0.7037920376139852       -2.6609752073373487      1.616109299355085
39.99999999999999        900                      304.66713211382114       0.2988772159846114       0.7011227840154859       -0.012779819735624767    -0.2219924933870025
39.99999999999999        910                      304.66713211382114       0.2933765685328719       0.7066234314670664       -0.8718728164637636      -0.6547755809825289
39.99999999999999        920                      304.66713211382114       0.2868454649554495       0.7131545350446125       -1.7391037534211513      -1.0894214920221228
39.99999999999999        930                      304.66713211382114       0.2803634465071789       0.7196365534930037       -2.6151550890475015      -1.5260153130344096
39.99999999999999        940                      304.66713211382114       0.27519297038491647      0.7248070296155072       2.7837808229883456       -1.9644092533019308
39.99999999999999        949.9999999999999        304.66713211382114       0.2723103229717509       0.7276896770281399       1.8936576839972654       -2.404012084077305
39.99999999999999        960                      304.66713211382114       0.2722684271243126       0.7277315728756344       1.0013906611833017       -2.8440894165024
39.99999999999999        969.9999999999999        304.66713211382114       0.2750992343089468       0.7249007656908871       0.11113082344444317      2.99947124053655
39.99999999999999        980                      304.66713211382114       0.28026825364388935      0.7197317463559263       -0.7732736386920711      2.5610461658145685
39.99999999999999        989.9999999999999        304.66713211382114       0.2867443507452787       0.7132556492546348       -1.6494362467018528      2.124398673370282
39.99999999999999        1000                     304.66713211382114       0.2933052464604148       0.7066947535397207       -2.516747840705522       1.6897220782917874
42                       900                      304.66713211382114       0.2995457637069852       0.7004542362931022       0.1262838163755866       -0.15228660563820753
42                       910                      304.66713211382114       0.29415719738201535      0.7058428026179004       -0.7282927316929071      -0.5836425891288731
42                       920                      304.66713211382114       0.2872919450046383       0.7127080549955586       -1.5907429913893694      -1.0167964285627622
42                       930                      304.66713211382114       0.28012533125393924      0.7198746687461958       -2.4626825737420535      -1.452084953978184
42                       940                      304.66713211382114       0.27396273822181727      0.7260372617781647       2.9392827894279328       -1.889370940182426
42                       949.9999999999999        304.66713211382114       0.2699508428814716       0.7300491571186227       2.050642095465116        -2.3282146277319105
42                       960                      304.66713211382114       0.2688895688116211       0.73111043118831         1.1582497497680764       -2.767838203660148
42                       969.9999999999999        304.66713211382114       0.27102334851691523      0.728976651482929        0.2666677284578953       3.0758885053006426
42                       980                      304.66713211382114       0.2759087519761525       0.7240912480238301       -0.6197355255228099      2.6375247923055647
42                       989.9999999999999        304.66713211382114       0.2825865386024579       0.7174134613975655       -1.4979561793692793      2.200851739978449
42                       1000                     304.66713211382114       0.2898175470243539       0.7101824529755749       -2.3664037487084117      1.7663507434978174
44                       900                      304.66713211382114       0.3002451397635983       0.6997548602367168       0.2692052582424567       -0.08025302782871774
44                       910                      304.66713211382114       0.29514940816200724      0.7048505918377113       -0.5803350967964054      -0.5099926481316409
44                       920                      304.66713211382114       0.2881589261906144       0.711841073809401        -1.4376793320574077      -0.9415830679128637
44                       930                      304.66713211382114       0.2803965637514996       0.719603436248132        -2.3046951350120137      -1.3753408476085636
44                       940                      304.66713211382114       0.2732015594930675       0.7267984405071094       3.1010880300440236       -1.8113654350305897
44                       949.9999999999999        304.66713211382114       0.26798276921808056      0.7320172307815364       2.214774625504444        -2.249240708332984
44                       960                      304.66713211382114       0.2657197413989023       0.7342802586010415       1.3228608383971094       -2.688283649153195
44                       969.9999999999999        304.66713211382114       0.26688834348817075      0.7331116565118542       0.43013047811657656      -3.1274681581220425
44                       980                      304.66713211382114       0.2712335250940083       0.7287664749058145       -0.4584247301542863      2.717381159273865
44                       989.9999999999999        304.66713211382114       0.27792437821677113      0.7220756217832389       -1.3389980002322772      2.280689480941136
44                       1000                     304.66713211382114       0.2856618260933525       0.7143381739064842       -2.2094942362766314      1.846117670952573
45.99999999999999        900                      304.66713211382114       0.3008569038809356       0.6991430961191387       0.41620831057330027      -0.005700230341295806
45.99999999999999        910                      304.66713211382114       0.29630087817807405      0.703699121821735        -0.4282193996729693      -0.43384311969596334
45.99999999999999        920                      304.66713211382114       0.2893667292328201       0.7106332707665994       -1.2798929672738626      -0.8636962555935582
45.99999999999999        930                      304.66713211382114       0.28113686905004         0.7188631309499066       -2.1414867011960625      -1.2958069553074407
45.99999999999999        940                      304.66713211382114       0.2730290663920268       0.7269709336081416       -3.0141129811184815      -1.730332676242568
45.99999999999999        949.9999999999999        304.66713211382114       0.2665235790776508       0.7334764209220752       2.3860868712984113       -2.167027891619412
45.99999999999999        960                      304.66713211382114       0.26285177664655957      0.7371482233534699       1.495487138816869        -2.6052984359572453
45.99999999999999        969.9999999999999        304.66713211382114       0.26279621419538496      0.737203785804781        0.6021358454852909       -3.0440847881988935
45.99999999999999        980                      304.66713211382114       0.2663154159136677       0.7336845840865636       -0.2886201058624614      2.8008116556840466
45.99999999999999        989.9999999999999        304.66713211382114       0.27277296717820715      0.727227032822091        -1.1720147624842403      2.3640006672071268
45.99999999999999        1000                     304.66713211382114       0.2808590300470461       0.7191409699530089       -2.0450757566722464      1.9293967861241923
48                       900                      304.66713211382114       0.30129189986838795      0.6987081001354546       0.5673328378555071       0.07140357127690214
48                       910                      304.66713211382114       0.29750621144426537      0.7024937885557277       -0.2719191933669837      -0.3550958216748758
48                       920                      304.66713211382114       0.29088735512845465      0.7091126448724221       -1.1177345217541195      -0.7831536929752478
48                       930                      304.66713211382114       0.28241072339258216      0.717589276607573        -1.9731353615037566      -1.2134218414543176
48                       940                      304.66713211382114       0.27348314854840095      0.7265168514516455       -2.8399871700633783      -1.6462395699928465
48                       949.9999999999999        304.66713211382114       0.2657114383617381       0.734288561637855        2.5643929566293737       -2.081578145744794
48                       960                      304.66713211382114       0.26049572577205105      0.7395042742263694       1.676285732346795        -2.5187757733836516
48                       969.9999999999999        304.66713211382114       0.25894821545563823      0.7410517845442194       0.7829494193149265       -2.9570428195698217
48                       980                      304.66713211382114       0.2613484333376295       0.7386515666625141       -0.1097955971368355      2.8880071391541775
48                       989.9999999999999        304.66713211382114       0.26720337472963623      0.7327966252703676       -0.9962508903104023      2.4511044429946938
48                       1000                     304.66713211382114       0.27535600365439505      0.7246439963463907       -1.8725468134464096      2.0162897414600742
50                       900                      304.66713211382114       0.3013863215855828       0.6986136784143996       0.723123692726859        0.15135430559849747
50                       910                      304.66713211382114       0.29868243388504384      0.701317566115009        -0.1111744889025171      -0.2735097462628615
50                       920                      304.66713211382114       0.2926510825071717       0.7073489174929595       -0.9507412483737079      -0.6996599857123712
50                       930                      304.66713211382114       0.28420350117174836      0.715796498827992        -1.7995262632648654      -1.1279690294778484
50                       940                      304.66713211382114       0.2746501678507801       0.7253498321491253       -2.6597824470604294      -1.5588510773154123
50                       949.9999999999999        304.66713211382114       0.2656582064559665       0.7343417935439654       2.7502505566042545       -1.9925017659479318
50                       960                      304.66713211382114       0.2588219363271682       0.7411780636727726       1.8657315167692543       -2.4284594585764077
50                       969.9999999999999        304.66713211382114       0.25553225085772324      0.7444677491420959       0.973444407011716        -2.8659461946790943
50                       980                      304.66713211382114       0.2564080440671123       0.7435919559327258       0.07942794599233545      2.9794571102434926
50                       989.9999999999999        304.66713211382114       0.26131259492897263      0.7386874050710822       -0.8102572584599909      2.54247207124669