% Model:              nanoholes_rw_sweep.mph
% Version:            COMSOL 6.0.0.405
% Date:               Apr 10 2024, 07:31
% Table:              Table 1 - Global Evaluation 1
% r (nm)                 h_meta (nm)              freq (THz)               reflection (1)           transmission (1)         reflection_phi (rad)     transmission_phi (rad)
19.999999999999996       1200                     304.66713211382114       0.29759417464177007      0.7024058253580808       -2.5328223065453526      -1.4736037732256062
19.999999999999996       1210                     304.66713211382114       0.2964629104775526       0.7035370895225153       2.8615358374332773       -1.9165030707593158
19.999999999999996       1220                     304.66713211382114       0.2962204318647226       0.7037795681353266       1.9718502475741408       -2.3595935339631207
19.999999999999996       1230                     304.66713211382114       0.29688895603817034      0.703111043961729        1.0823236604069322       -2.8026619915054116
19.999999999999996       1239.9999999999998       304.66713211382114       0.2983684856300245       0.7016315143699965       0.19432372811593884      3.037803636788057
19.999999999999996       1250                     304.66713211382114       0.3003494937159248       0.6996505062840377       -0.6911645179363585      2.5956808058234615
19.999999999999996       1259.9999999999998       304.66713211382114       0.30246586374841206      0.6975341362524597       -1.5738531799346986      2.1541797942417324
19.999999999999996       1270                     304.66713211382114       0.3043283499824408       0.6956716500173749       -2.454150353277204       1.7131591303852405
19.999999999999996       1279.9999999999998       304.66713211382114       0.3055216219305805       0.6944783780695081       2.951519744149509        1.2729723931044203
19.999999999999996       1290                     304.66713211382114       0.3059246971834575       0.6940753028161905       2.074634133924445        0.8328265644702312
19.999999999999996       1300                     304.66713211382114       0.3053807703959307       0.6946192296041902       1.197769228735085        0.3926874792467079
22                       1200                     304.66713211382114       0.2963940844170358       0.7036059155828309       -2.40862093934858        -1.412435625039973
22                       1210                     304.66713211382114       0.2948326331468929       0.7051673668530559       2.9862705931917466       -1.854943909283101
22                       1220                     304.66713211382114       0.2942898798900129       0.7057101201100102       2.0965189260160653       -2.2977676298936047
22                       1230                     304.66713211382114       0.29480334656599594      0.7051966534341461       1.2066982175037566       -2.7406131675917402
22                       1239.9999999999998       304.66713211382114       0.29633489678161995      0.7036651032183325       0.3183079668712488       3.1000424519332572
22                       1250                     304.66713211382114       0.29856502694143106      0.7014349730582549       -0.5674203303025209      2.658114509480802
22                       1259.9999999999998       304.66713211382114       0.3010597771437264       0.6989402228562873       -1.4498870066135088      2.2169481827394355
22                       1270                     304.66713211382114       0.3033563341512204       0.6966436658487941       -2.3290437846150245      1.7765295522612128
22                       1279.9999999999998       304.66713211382114       0.3050409014132931       0.6949590985867385       3.0776635019349565       1.3367596158173898
22                       1290                     304.66713211382114       0.30575324263173637      0.6942467573680616       2.2028179567130866       0.8973707031017308
22                       1300                     304.66713211382114       0.3053891356385712       0.6946108643614924       1.3281306384582634       0.45801066623965275
24                       1200                     304.66713211382114       0.2953066635681071       0.7046933364318121       -2.276956548651127       -1.347684559754528
24                       1210                     304.66713211382114       0.2932731491747345       0.7067268508251933       3.118655967862519        -1.7897281193125953
24                       1220                     304.66713211382114       0.29229603060170617      0.7077039693983799       2.2290466128040194       -2.2322333238490937
24                       1230                     304.66713211382114       0.2925821896939728       0.7074178103060009       1.3388728590280594       -2.6748760531992724
24                       1239.9999999999998       304.66713211382114       0.29407764543507686      0.7059223545648647       0.4500061574694989       -3.1172180406061494
24                       1250                     304.66713211382114       0.2964933266006657       0.7035066733992433       -0.4361125310121811      2.7242494250419322
24                       1259.9999999999998       304.66713211382114       0.2993377534015806       0.7006622465986811       -1.3186618254644014      2.2833387330138777
24                       1270                     304.66713211382114       0.30212790151887825      0.6978720984809822       -2.197252183578633       1.843343103280796
24                       1279.9999999999998       304.66713211382114       0.3042784436195238       0.6957215563806041       -3.0724852231892568      1.4041349060115855
24                       1290                     304.66713211382114       0.3054531272893311       0.6945468727105393       2.337692883446812        0.965467571660753
24                       1300                     304.66713211382114       0.3053883309384717       0.6946116690615399       1.4653917827276206       0.5269261331286023
25.999999999999996       1200                     304.66713211382114       0.2944189298400076       0.7055810701598374       -2.138272735760241       -1.2795412189404411
25.999999999999996       1210                     304.66713211382114       0.29183246615721087      0.7081675338427946       -3.0246857095766044      -1.7210358758777247
25.999999999999996       1220                     304.66713211382114       0.29031336024194176      0.7096866397579223       2.3692587463248227       -2.163119647963193
25.999999999999996       1230                     304.66713211382114       0.29022997446781956      0.7097700255322119       1.478814311295198        -2.6055068156952754
25.999999999999996       1239.9999999999998       304.66713211382114       0.29159005097751306      0.7084099490225181       0.5892812903508137       -3.0476898889474757
25.999999999999996       1250                     304.66713211382114       0.2940966963566953       0.7059033036434319       -0.2974698747744785      2.793939435274763
25.999999999999996       1259.9999999999998       304.66713211382114       0.2972887093052886       0.702711290694618        -1.1802668998351706      2.3532702247835378
25.999999999999996       1270                     304.66713211382114       0.30054830916758435      0.6994516908323705       -2.0586257702332267      1.9136214760869625
25.999999999999996       1279.9999999999998       304.66713211382114       0.30327773250853773      0.6967222674914431       -2.932950168500962       1.4749069802404962
25.999999999999996       1290                     304.66713211382114       0.30497502932491544      0.6950249706750867       2.478942042450583        1.0369331855232242
25.999999999999996       1300                     304.66713211382114       0.3053371489305781       0.6946628510691796       1.609038829131248        0.599264232174582
28                       1200                     304.66713211382114       0.2937510667061233       0.7062489332939266       -1.992863710380013       -1.2081134657088928
28                       1210                     304.66713211382114       0.29055849080242996      0.7094415091976681       -2.877615302209085       -1.648887810562034
28                       1220                     304.66713211382114       0.28844590944043363      0.7115540905594351       2.5170415793564636       -2.0905050758937618
28                       1230                     304.66713211382114       0.28785118437260376      0.7121488156273326       1.6265408211721224       -2.5325555657690857
28                       1239.9999999999998       304.66713211382114       0.2889020912794105       0.7110979087206029       0.7363963821040093       -2.974554728867287
28                       1250                     304.66713211382114       0.29140336153328206      0.7085966384668385       -0.15128485637465208     2.8672083540425737
28                       1259.9999999999998       304.66713211382114       0.29484737011360235      0.7051526298863495       -1.0347425874227276      2.4266818881610366
28                       1270                     304.66713211382114       0.2985966755814973       0.701403324418418        -1.9131596148868777      1.9873381293369745
28                       1279.9999999999998       304.66713211382114       0.3019264285646926       0.6980735714355507       -2.7868596580549343      1.5490700484583226
28                       1290                     304.66713211382114       0.3042636600011699       0.6957363399986994       2.626235111945045        1.1116041186185053
28                       1300                     304.66713211382114       0.30516072835481245      0.6948392716451857       1.75874663677425         0.6748866529892369
30                       1200                     304.66713211382114       0.2933916304643181       0.706608369535938        -1.8409230680927733      -1.1334585762130285
30                       1210                     304.66713211382114       0.28952501866281616      0.7104749813372371       -2.723559826815029       -1.5734251190828838
30                       1220                     304.66713211382114       0.2866986348875445       0.7133013651125546       2.672243837466225        -2.0144525203070143
30                       1230                     304.66713211382114       0.28547943975005563      0.714520560250023        1.7819464673231633       -2.456108709235268
30                       1239.9999999999998       304.66713211382114       0.28609195186721276      0.7139080481328294       0.8911485234737758       -2.8978910584187942
30                       1250                     304.66713211382114       0.2884545411147009       0.7115454588854621       0.002581391250009565     2.9440072376487456
30                       1259.9999999999998       304.66713211382114       0.2920461796213402       0.7079538203786981       -0.8818625425652065      2.5036034869369486
30                       1270                     304.66713211382114       0.2962184117996681       0.7037815882008512       -1.7607904792020117      2.064482653961036
30                       1279.9999999999998       304.66713211382114       0.30017290264192004      0.6998270973581594       -2.6342465425289756      1.6265898709024247
30                       1290                     304.66713211382114       0.3031914964507589       0.69680850354931         2.7801743306024265       1.189811980965569
30                       1300                     304.66713211382114       0.30475416821912404      0.6952458317798235       1.9144376666979166       0.7537384985282561
31.999999999999996       1200                     304.66713211382114       0.29329288216893384      0.7067071178311064       -1.6827086196802181      -1.0556451150232928
31.999999999999996       1210                     304.66713211382114       0.28879250353632197      0.7112074964637518       -2.562703312315934       -1.4947039471360852
31.999999999999996       1220                     304.66713211382114       0.2852187492644052       0.7147812507355126       2.8347458587198244       -1.934987012861127
31.999999999999996       1230                     304.66713211382114       0.28322678758400377      0.7167732124160692       1.945052459342447        -2.3761633119220997
31.999999999999996       1239.9999999999998       304.66713211382114       0.28324611467583055      0.7167538853241866       1.0538915862152136       -2.8176357199500646
31.999999999999996       1250                     304.66713211382114       0.2852579037644667       0.7147420962355114       0.1642303538255852       3.0243724128902185
31.999999999999996       1259.9999999999998       304.66713211382114       0.28888309366992754      0.7111169063300891       -0.7214279685944097      2.584081159222496
31.999999999999996       1270                     304.66713211382114       0.2933841377250918       0.7066158622749766       -1.6013158396921043      2.1450631656167296
31.999999999999996       1279.9999999999998       304.66713211382114       0.2979716667600373       0.7020283332400374       -2.475061132700202       1.7074486181504789
31.999999999999996       1290                     304.66713211382114       0.3017533285395326       0.6982466714605473       2.9400953616341003       1.2711732631709554
31.999999999999996       1300                     304.66713211382114       0.304100122190853        0.6958998778091289       2.0759202251658757       0.8357702659847679
33.99999999999999        1200                     304.66713211382114       0.29355009170291935      0.7064499082968672       -1.5186502379194904      -0.9748122197944186
33.99999999999999        1210                     304.66713211382114       0.2884534879789402       0.7115465120209733       -2.395445557038825       -1.4127632116499227
33.99999999999999        1220                     304.66713211382114       0.2840556336441247       0.7159443663559956       3.004434229072233        -1.8521656452369002
33.99999999999999        1230                     304.66713211382114       0.28118352887032927      0.7188164711295306       2.1159520962100493       -2.2926746531766997
33.99999999999999        1239.9999999999998       304.66713211382114       0.28040497580143003      0.7195950241984534       1.2246330731305715       -2.7338198822164093
33.99999999999999        1250                     304.66713211382114       0.2819146030478429       0.7180853969521362       0.3339452809165967       3.1083589367677864
33.99999999999999        1259.9999999999998       304.66713211382114       0.28533365362567514      0.7146663463744488       -0.5531857191399945      2.6681170484621135
33.99999999999999        1270                     304.66713211382114       0.2901068746485057       0.709893125351511        -1.434479847984228       2.229166849985006
33.99999999999999        1279.9999999999998       304.66713211382114       0.2952310176668276       0.7047689823331175       -2.3090134819185013      1.7917198136584427
33.99999999999999        1290                     304.66713211382114       0.29980146049973583      0.7001985395003127       3.1062928120475157       1.3558028900183325
33.99999999999999        1300                     304.66713211382114       0.3030353460248732       0.6969646539751624       2.24348340408667         0.9210587367994076
36                       1200                     304.66713211382114       0.29417524278779944      0.7058247572121599       -1.3488165003398092      -0.8908992292652007
36                       1210                     304.66713211382114       0.2885134351837713       0.7114865648163295       -2.22158604717806        -1.3275666647056747
36                       1220                     304.66713211382114       0.2833078629346457       0.7166921370654192       -3.101874901734382       -1.765920155084989
36                       1230                     304.66713211382114       0.2794549694261022       0.7205450305739461       2.29453247840409         -2.205701687119625
36                       1239.9999999999998       304.66713211382114       0.2777139305527676       0.7222860694471436       1.4037681562362214       -2.646299320183062
36                       1250                     304.66713211382114       0.278472418740387        0.7215275812594962       0.5122331476735158       -3.0870776697102156
36                       1259.9999999999998       304.66713211382114       0.2815236971107803       0.7184763028893519       -0.3765386727236911      2.75592458329247
36                       1270                     304.66713211382114       0.2863008257458153       0.713699174254387        -1.2596964029944842      2.3169485648183747
36                       1279.9999999999998       304.66713211382114       0.2919176804096142       0.708082319590427        -2.1354068079984883      1.8796118513570013
36                       1290                     304.66713211382114       0.29728807861663525      0.7027119213834326       -3.0039430908432294      1.4438866991861414
36                       1300                     304.66713211382114       0.30147396968985557      0.6985260303097954       2.4170938631184997       1.0096368182513507
38                       1200                     304.66713211382114       0.2950681213558876       0.7049318786443326       -1.1733948739801134      -0.803901718911868
38                       1210                     304.66713211382114       0.2890641226607063       0.7109358773394368       -2.041711387541798       -1.2392132394792483
38                       1220                     304.66713211382114       0.2830644268642777       0.7169355731357696       -2.9180500912709553      -1.676270810975309
38                       1230                     304.66713211382114       0.27814907394356125      0.7218509260566592       2.481070550571815        -2.115041916316392
38                       1239.9999999999998       304.66713211382114       0.27531408617638725      0.7246859138236391       1.5912869670543126       -2.555029349157285
38                       1250                     304.66713211382114       0.2750961554779898       0.724903844521999        0.6993227509030382       -2.9954723377463313
38                       1259.9999999999998       304.66713211382114       0.27750211598788765      0.7224978840122622       -0.19105843601275335     2.8476058670919193
38                       1270                     304.66713211382114       0.2821379633169849       0.7178620366829207       -1.0762907612833426      2.4085830439579254
38                       1279.9999999999998       304.66713211382114       0.28802645917129277      0.711973540828696        -1.9541159269740986      1.9711630675338951
38                       1290                     304.66713211382114       0.2940898347988211       0.7059101652011686       -2.823659428745265       1.5356088959747776
38                       1300                     304.66713211382114       0.29929044956838396      0.7007095504316105       2.597392645899554        1.1017183409007154
39.99999999999999        1200                     304.66713211382114       0.2962395623418793       0.7037604376580666       -0.9928191045310104      -0.7139047556526875
39.99999999999999        1210                     304.66713211382114       0.29004567377203017      0.709954326227972        -1.855884275758278       -1.1476247370491055
39.99999999999999        1220                     304.66713211382114       0.2834057186294782       0.7165942813705296       -2.7276231874297663      -1.5832737565071622
39.99999999999999        1230                     304.66713211382114       0.27744332233187735      0.7225566776684664       2.675133225129473        -2.020822925551287
39.99999999999999        1239.9999999999998       304.66713211382114       0.27335301891416447      0.7266469810856778       1.7874312106078591       -2.459922121932503
39.99999999999999        1250                     304.66713211382114       0.27191143027422227      0.7280885697255833       0.8955481844404533       -2.8999119751001596
39.99999999999999        1259.9999999999998       304.66713211382114       0.2734144953353833       0.7265855046645294       0.0038453887287431777    2.9433244819662145
39.99999999999999        1270                     304.66713211382114       0.27756462379474095      0.7224353762053037       -0.8838023797014821      2.5042203419449938
39.99999999999999        1279.9999999999998       304.66713211382114       0.28351454038102875      0.7164854596189979       -1.7640699189704003      2.066681383924658
39.99999999999999        1290                     304.66713211382114       0.2902063464964156       0.7097936535033897       -2.6355220343751253      1.6311152571658742
39.99999999999999        1300                     304.66713211382114       0.29636719450047716      0.7036328054997653       2.7845816342397343       1.1973798654503607
42                       1200                     304.66713211382114       0.29760482661992915      0.7023951733798615       -0.8071316742320624      -0.6208633602918521
42                       1210                     304.66713211382114       0.291460960486074        0.7085390395139485       -1.6645301142102327      -1.0528490003586342
42                       1220                     304.66713211382114       0.2843242597858759       0.7156757402141447       -2.530855448223263       -1.4869032371745798
42                       1230                     304.66713211382114       0.27742654250988585      0.7225734574902528       2.8765910439026694       -1.92300708478679
42                       1239.9999999999998       304.66713211382114       0.27201268908970405      0.7279873109104543       1.9919028341226557       -2.3610352343309846
42                       1250                     304.66713211382114       0.26912307492024934      0.7308769250795695       1.1011409264075436       -2.800318131786027
42                       1259.9999999999998       304.66713211382114       0.2693952999569689       0.7306047000431415       0.20853128101612786      3.043207496607529
42                       1270                     304.66713211382114       0.272746959344421        0.7272530406555335       -0.6813376904547803      2.6041106291535585
42                       1279.9999999999998       304.66713211382114       0.27852410808443634      0.7214758919155123       -1.5647033978473934      2.1663551105162746
42                       1290                     304.66713211382114       0.28555287000343954      0.7144471299966451       -2.438896164290572       1.7305936443400987
42                       1300                     304.66713211382114       0.29261145518966625      0.7073885448101946       2.9796730834924134       1.2969175061637401
44                       1200                     304.66713211382114       0.299000403895851        0.7009995961040193       -0.6163362395653015      -0.5246404371974599
44                       1210                     304.66713211382114       0.29324157919001953      0.7067584208144698       -1.4677977357495624      -0.9548724386856885
44                       1220                     304.66713211382114       0.2858614179069237       0.7141385820932018       -2.3279121765530024      -1.3870745225280665
44                       1230                     304.66713211382114       0.27812877483643345      0.7218712251635595       3.085167211504627        -1.8215205909353822
44                       1239.9999999999998       304.66713211382114       0.27140364174035714      0.7285963582593211       2.204867517823372        -2.25816342775419
44                       1250                     304.66713211382114       0.2669452482954958       0.7330547517045051       1.3164335989587101       -2.696478938736483
44                       1259.9999999999998       304.66713211382114       0.2656748515600221       0.7343251484399768       0.4238122204547038       -3.135650176624808
44                       1270                     304.66713211382114       0.2678671751590287       0.7321328248410117       -0.4682109507139575      2.708496545189622
44                       1279.9999999999998       304.66713211382114       0.2730145157082553       0.7269854842916614       -1.3548034972174552      2.270543882389707
44                       1290                     304.66713211382114       0.28019019592863637      0.7198098040714667       -2.2324823521489936      1.8344639432327956
44                       1300                     304.66713211382114       0.28793544502813057      0.7120645549718744       -3.0997535740404496      1.4006295611562236
45.99999999999999        1200                     304.66713211382114       0.30026681832001384      0.6997331816797245       -0.4205308725783928      -0.4252084605294299
45.99999999999999        1210                     304.66713211382114       0.29521696348243576      0.7047830365178488       -1.2660202442532635      -0.8536406963319202
45.99999999999999        1220                     304.66713211382114       0.2879575075295874       0.7120424924703861       -2.1192412113530428      -1.2838146683652878
45.99999999999999        1230                     304.66713211382114       0.2796293624566771       0.7203706375432668       -2.9826865967063125      -1.7163527336083593
45.99999999999999        1239.9999999999998       304.66713211382114       0.271731830915588        0.7282681690843648       2.425861093661315        -2.151328443628403
45.99999999999999        1250                     304.66713211382114       0.2656319069967364       0.7343680930032209       1.541169760274871        -2.5883975120634073
45.99999999999999        1259.9999999999998       304.66713211382114       0.2625692208674889       0.737430779132425        0.6497194460285048       -3.026800445470284
45.99999999999999        1270                     304.66713211382114       0.26319477572099187      0.736805224279029        -0.2436273360820195      2.8175862123099247
45.99999999999999        1279.9999999999998       304.66713211382114       0.2672976416013395       0.7327023583986841       -1.1333740199419442      2.37952368258751
45.99999999999999        1290                     304.66713211382114       0.27411749870989666      0.7258825012899863       -2.0150299613920057      1.9430815008322737
45.99999999999999        1300                     304.66713211382114       0.28234146580409114      0.7176585341959107       -2.8861465246466937      1.5088430816716942
48                       1200                     304.66713211382114       0.30116725575782044      0.6988327442420181       -0.2196693071348717      -0.32249518632262403
48                       1210                     304.66713211382114       0.29723629100793775      0.7027637089919986       -1.0592014939624934      -0.7490432002670981
48                       1220                     304.66713211382114       0.2904840586330112       0.7095159413668245       -1.9053874976211047      -1.1771884691028187
48                       1230                     304.66713211382114       0.281941553483195        0.7180584465167544       -2.7612505764911024      -1.6075731285993822
48                       1239.9999999999998       304.66713211382114       0.2730449411750124       0.7269550588251074       2.654284748758902        -2.040547993717945
48                       1250                     304.66713211382114       0.2653443864358342       0.7346556135641064       1.774998514902362        -2.4760012317582745
48                       1259.9999999999998       304.66713211382114       0.2603167767456434       0.7396832232544014       0.8863877416429301       -2.9133291485539634
48                       1270                     304.66713211382114       0.25897221993750824      0.7410277800624595       -0.0071493689029381085   2.931564734874686
48                       1279.9999999999998       304.66713211382114       0.26156509111092907      0.738434908889128        -0.8995771884073168      2.4935080432793435
48                       1290                     304.66713211382114       0.2675919674979542       0.7324080325019813       -1.7856450370558967      2.056696216766457
48                       1300                     304.66713211382114       0.2758419047806581       0.7241580952194108       -2.6612455258626335      1.6220136687178126
50                       1200                     304.66713211382114       0.30143590956906985      0.6985640904308662       -0.012805248078285215    -0.21596463622988027
50                       1210                     304.66713211382114       0.2990121224260591       0.7009878775739398       -0.8468619342126473      -0.6408003914525833
50                       1220                     304.66713211382114       0.29323212086099754      0.7067678791389245       -1.6859915612388479      -1.0668255088572625
50                       1230                     304.66713211382114       0.28493142125463305      0.7150685787453175       -2.533695277263233       -1.4948655858642501
50                       1239.9999999999998       304.66713211382114       0.2754033548039485       0.7245966451961241       2.890126221063147        -1.9255596897567642
50                       1250                     304.66713211382114       0.26629082407153915      0.7337091759284341       2.0179447414166902       -2.3590105302838515
50                       1259.9999999999998       304.66713211382114       0.2592312949046187       0.7407687050954841       1.1341758706784193       -2.7948294176197925
50                       1270                     304.66713211382114       0.2556248703203819       0.744375129679446        0.24231202214335162      3.0509573905578486
50                       1279.9999999999998       304.66713211382114       0.2561937088325012       0.7438062911674532       -0.651853996743109       2.613143536802126
50                       1290                     304.66713211382114       0.26081014507667816      0.7391898549233016       -1.542051635278462       2.17606074383181