% Model:              nanoholes_rw_sweep.mph
% Version:            COMSOL 6.0.0.405
% Date:               Apr 11 2024, 10:56
% Table:              Table 1 - Global Evaluation 1
% r (nm)                 h_meta (nm)              freq (THz)               reflection (1)           transmission (1)         reflection_phi (rad)     transmission_phi (rad)
19.999999999999996       1300                     304.66713211382114       0.30538077039576517      0.6946192296041965       1.1977692287350097       0.39268747924678504
19.999999999999996       1310                     304.66713211382114       0.3040323795284545       0.695967620471583        0.3195273196481687       -0.047776879977142375
19.999999999999996       1320                     304.66713211382114       0.30212942336447934      0.697870576635432        -0.5609432129169453      -0.4887317719085113
19.999999999999996       1330                     304.66713211382114       0.3000271803182992       0.6999728196825851       -1.4440458710960091      -0.9303337452011606
19.999999999999996       1340                     304.66713211382114       0.29809308387231087      0.7019069161277423       -2.3300405993058244      -1.3725806179671127
19.999999999999996       1349.9999999999998       304.66713211382114       0.2967549410169137       0.7032450589830155       3.0648833178053465       -1.8153519105044333
19.999999999999996       1360                     304.66713211382114       0.2961954069208896       0.7038045930791552       2.1753771317563944       -2.2584179838871106
19.999999999999996       1369.9999999999998       304.66713211382114       0.2965729333224492       0.7034270666774979       1.285678222215235        -2.701501102922307
19.999999999999996       1380                     304.66713211382114       0.29782433008343434      0.7021756699165164       0.39708708449600705      3.138818061836504
19.999999999999996       1389.9999999999998       304.66713211382114       0.2996826231993544       0.700317376800503        -0.48932872436824526     2.6964829869449254
19.999999999999996       1400                     304.66713211382114       0.3018080569638682       0.6981919430363113       -1.37292919672358        2.2547609931703994
22                       1300                     304.66713211382114       0.3053891356384384       0.6946108643615471       1.328130638458183        0.4580106662396705
22                       1310                     304.66713211382114       0.30405749643001545      0.6959425035700522       0.4523956718026591       0.01839387247786392
22                       1320                     304.66713211382114       0.30194433567767887      0.6980556643223628       -0.42576977579289144     -0.4217731792486407
22                       1330                     304.66713211382114       0.29948705447164253      0.7005129455283777       -1.3069538796936904      -0.8626397051749068
22                       1340                     304.66713211382114       0.2971454479098362       0.7028545520902103       -2.1915126813727355      -1.3043150782132567
22                       1349.9999999999998       304.66713211382114       0.29529061870654916      0.7047093812933735       -3.078963971172339       -1.7466156807819335
22                       1360                     304.66713211382114       0.2943534554602373       0.705646544539726        2.314817506208866        -2.1893794592633102
22                       1369.9999999999998       304.66713211382114       0.2945003535143264       0.7054996464856301       1.4248275772591652       -2.632257409171384
22                       1380                     304.66713211382114       0.29569772813780454      0.7043022718621438       0.5357561111589003       -3.074943620227425
22                       1389.9999999999998       304.66713211382114       0.29774225263546344      0.7022577473646276       -0.3510377267265685      2.7660874528943373
22                       1400                     304.66713211382114       0.3001869319511157       0.699813068048854        -1.2346834887650409      2.324613743167766
24                       1300                     304.66713211382114       0.3053883309384022       0.6946116690615612       1.465391782727466        0.526926133128551
24                       1310                     304.66713211382114       0.30415009937903376      0.695849900621032        0.5922057951274285       0.08819430127882555
24                       1320                     304.66713211382114       0.3019289061427133       0.698071093857296        -0.2832775614522674      -0.3510663235347491
24                       1330                     304.66713211382114       0.2991541510976063       0.7008458489029019       -1.1621682765254906      -0.7911549520883684
24                       1340                     304.66713211382114       0.29631620020742816      0.7036837997926194       -2.0449023427358286      -1.2320942872463923
24                       1349.9999999999998       304.66713211382114       0.2939639270392252       0.7060360729606271       -2.9312636672063563      -1.6738709636121003
24                       1360                     304.66713211382114       0.29252639538311487      0.7074736046168411       2.4629491849604896       -2.116226260246446
24                       1369.9999999999998       304.66713211382114       0.29231378389375856      0.707686216106209        1.5728726273590627       -2.5588217293701865
24                       1380                     304.66713211382114       0.29335298690931627      0.7066470130904213       0.6831716991744202       -3.001352885078096
24                       1389.9999999999998       304.66713211382114       0.29547516893495906      0.7045248310650011       -0.20416360465356465     2.8398330179436035
24                       1400                     304.66713211382114       0.29821933044695115      0.7017806695528711       -1.0881498408356767      2.3985740812188596
25.999999999999996       1300                     304.66713211382114       0.30533714893062164      0.6946628510692486       1.6090388291316247       0.5992642321745741
25.999999999999996       1310                     304.66713211382114       0.30430359338680824      0.6956964066134157       0.7385216181145171       0.16143287825657898
25.999999999999996       1320                     304.66713211382114       0.30207442856834044      0.697925571431763        -0.13406555161920247     -0.27686183260190295
25.999999999999996       1330                     304.66713211382114       0.2990384048881303       0.7009615951116593       -1.0101334772311725      -0.7159640248770557
25.999999999999996       1340                     304.66713211382114       0.29575055969610486      0.7042494403184011       -1.8906363365253804      -1.1561246238295348
25.999999999999996       1349.9999999999998       304.66713211382114       0.29282261170701274      0.707177388292989        -2.77542732561846        -1.5972272136525392
25.999999999999996       1360                     304.66713211382114       0.29080005969950823      0.7091999403004495       2.6195767520324487       -2.039101847106557
25.999999999999996       1369.9999999999998       304.66713211382114       0.29009607818861366      0.7099039218112587       1.729418632267661        -2.481409027661345
25.999999999999996       1380                     304.66713211382114       0.29084194192225366      0.7091580580777906       0.83928949565736         -2.9237321733068753
25.999999999999996       1389.9999999999998       304.66713211382114       0.2929317507205615       0.7070682492793611       -0.048836756791096954    2.917609791285873
25.999999999999996       1400                     304.66713211382114       0.29587120000072087      0.7041287999996602       -0.9334531473685888      2.4765032381041996
28                       1300                     304.66713211382114       0.30516072835485775      0.6948392716451853       1.7587466367745894       0.6748866529892518
28                       1310                     304.66713211382114       0.3044847505619555       0.6955152494379412       0.8911491350901746       0.2380462369623169
28                       1320                     304.66713211382114       0.302350352052467        0.6976496479475143       0.021667836127416542     -0.19921107519418693
28                       1330                     304.66713211382114       0.2991572569087533       0.700842743090675        -0.8513504778225346      -0.6373045521314502
28                       1340                     304.66713211382114       0.29546986942997344      0.7045301305701339       -1.7290408088311986      -1.0765092791322917
28                       1349.9999999999998       304.66713211382114       0.2919355573294682       0.7080644426705682       -2.611641453439378       -1.5167893848922263
28                       1360                     304.66713211382114       0.2892520888189705       0.7107479111810806       2.784568379371921        -1.958085174562024
28                       1369.9999999999998       304.66713211382114       0.28792337866152806      0.7120766213388005       1.8946978835335764       -2.4000043335065664
28                       1380                     304.66713211382114       0.2882191058832019       0.7117808941168858       1.003998481558024        -2.8421160514990627
28                       1389.9999999999998       304.66713211382114       0.29010012460212714      0.7098998753978424       0.11499636619506771      2.9993557111442706
28                       1400                     304.66713211382114       0.29318322737800934      0.7068167726220831       -0.7704526009248347      2.5584122893243197
30                       1300                     304.66713211382114       0.304754168219278        0.6952458317799172       1.9144376666980965       0.753738498528603
30                       1310                     304.66713211382114       0.3045905623694846       0.6954094376304226       1.0495387926957467       0.3178506169864832
30                       1320                     304.66713211382114       0.30274315684205505      0.6972568431578962       0.18343293789413467      -0.11828820256902349
30                       1330                     304.66713211382114       0.299522245711393        0.7004777542885515       -0.6861073102796447      -0.5552806714973652
30                       1340                     304.66713211382114       0.2954884522288223       0.7045115477712346       -1.5605186378812785      -0.9933936819208632
30                       1349.9999999999998       304.66713211382114       0.2913847215961858       0.7086152784038325       -2.4404389182324357      -1.4327504644371207
30                       1360                     304.66713211382114       0.2879544864635552       0.7120455135365211       2.9575144309427657       -1.8732885446206324
30                       1369.9999999999998       304.66713211382114       0.2858776092311092       0.7141223907691184       2.068367292645207        -2.3147290561123697
30                       1380                     304.66713211382114       0.2855617391878681       0.7144382608123038       1.177527561815739        -2.7565030812396154
30                       1389.9999999999998       304.66713211382114       0.28710158119716495      0.7128984188030193       0.28750532373371257      3.085062115813577
30                       1400                     304.66713211382114       0.2901327863158899       0.7098672136841281       -0.5991488472576084      2.64421566914412
31.999999999999996       1300                     304.66713211382114       0.30410012219090304      0.6958998778090277       2.075920225165724        0.8357702659847439
31.999999999999996       1310                     304.66713211382114       0.3045852529735291       0.6954147470264285       1.213719088156138        0.40085045285877974
31.999999999999996       1320                     304.66713211382114       0.30318482489748405      0.6968151751026436       0.3509491997889866       -0.034193559575814284
31.999999999999996       1330                     304.66713211382114       0.3000717030848048       0.6999282969151112       -0.5148202240726752      -0.46995385935086137
31.999999999999996       1340                     304.66713211382114       0.29583099257451645      0.7041690074257615       -1.3854401895251787      -0.9068503677389348
31.999999999999996       1349.9999999999998       304.66713211382114       0.29120647182772497      0.7087935281722456       -2.2621566567602067      -1.345146224405524
31.999999999999996       1360                     304.66713211382114       0.2870241310264892       0.7129758689734778       3.1383396609624343       -1.7847757044610417
31.999999999999996       1369.9999999999998       304.66713211382114       0.284086790186064        0.7159132098139717       2.250528676115913        -2.225523709046915
31.999999999999996       1380                     304.66713211382114       0.28295671514904763      0.7170432848509626       1.3597919718534648       -2.6669501952293224
31.999999999999996       1389.9999999999998       304.66713211382114       0.28392837925948183      0.7160716207405563       0.4689892723060638       -3.108341908116749
31.999999999999996       1400                     304.66713211382114       0.2867255162157528       0.7132744837842016       -0.4190957036769894      2.7340293383652674
33.99999999999999        1300                     304.66713211382114       0.3030353460249096       0.6969646539751825       2.2434834040864          0.9210587367993439
33.99999999999999        1310                     304.66713211382114       0.30436334061299525      0.6956366593871028       1.3835663361546058       0.4870322420629459
33.99999999999999        1320                     304.66713211382114       0.30354906676321536      0.6964509332365917       0.5240065421223256       0.05306579445934433
33.99999999999999        1330                     304.66713211382114       0.30079044884980793      0.6992095511501907       -0.3377801829082878      -0.38140866615278807
33.99999999999999        1340                     304.66713211382114       0.2965013706688311       0.703498629331127        -1.2042375263417384      -0.8169946698389436
33.99999999999999        1349.9999999999998       304.66713211382114       0.29143814716634847      0.7085618528335196       -2.07696214123329        -1.2540244289977889
33.99999999999999        1360                     304.66713211382114       0.2865303693057249       0.7134696306943509       -2.9564871733530005      -1.6925936881339239
33.99999999999999        1369.9999999999998       304.66713211382114       0.28266349063976925      0.7173365093600744       2.4409225626717306       -2.132571849663341
33.99999999999999        1380                     304.66713211382114       0.2805824399530652       0.7194175600469433       1.550876815724561        -2.5734079950408186
33.99999999999999        1389.9999999999998       304.66713211382114       0.2807420148452009       0.7192579851551051       0.6595796800418634       -3.0145183657880055
33.99999999999999        1400                     304.66713211382114       0.28309850318730945      0.7169014968126968       -0.230024345222365       2.8278958758748725
36                       1300                     304.66713211382114       0.3014739696902303       0.6985260303099381       2.417093863118013        1.009636818251277
36                       1310                     304.66713211382114       0.30376822327732794      0.6962317767226407       1.5591860328134468       0.5764175020191918
36                       1320                     304.66713211382114       0.30379409730818224      0.6962059026918429       0.7026610450831805       0.14353870506230618
36                       1330                     304.66713211382114       0.3015696305486704       0.6984303694512813       -0.15514922934725356     -0.2896531536916679
36                       1340                     304.66713211382114       0.29745698819246214      0.7025430118075292       -1.0170913841891924      -0.723840661365002
36                       1349.9999999999998       304.66713211382114       0.2921417623681706       0.7078582376317623       -1.8852732911662182      -1.159466836066267
36                       1360                     304.66713211382114       0.28655452393150205      0.7134454760684638       -2.760770346299773       -1.5967620980538273
36                       1369.9999999999998       304.66713211382114       0.28170440957672266      0.7182955904232081       2.639646774287583        -2.0356495486962336
36                       1380                     304.66713211382114       0.278558046567483        0.7214419534323532       1.7510437970292605       -2.4758141880282447
36                       1389.9999999999998       304.66713211382114       0.27770406980690804      0.7222959301931173       0.8595363916150786       -2.9165767679294166
36                       1400                     304.66713211382114       0.2793199398135813       0.720680060186465        -0.031404522244579326    2.9259332632666637
38                       1300                     304.66713211382114       0.29929044956828704      0.7007095504316876       2.597392645899331        1.1017183409006752
38                       1310                     304.66713211382114       0.30267991188710464      0.6973200881128832       1.7407454685868875       0.6691475568850194
38                       1320                     304.66713211382114       0.3037415469527116       0.6962584530472988       0.8870393788381992       0.23730211901972767
38                       1330                     304.66713211382114       0.3023193958444205       0.6976806041557021       0.03306942500340987      -0.19461532093180522
38                       1340                     304.66713211382114       0.2986144240242285       0.7013855759759606       -0.824254801989008       -0.6273744977269908
38                       1349.9999999999998       304.66713211382114       0.29325685403461627      0.7067431459654527       -1.6873437734919043      -1.0614365971623332
38                       1360                     304.66713211382114       0.28713648182797746      0.7128635181736301       -2.558065831976127       -1.4972720026466109
38                       1369.9999999999998       304.66713211382114       0.28138249632016715      0.7186175036791014       2.846165239950854        -1.9349794598326298
38                       1380                     304.66713211382114       0.2770211026090878       0.7229788973910012       1.9600503598318868       -2.374155278832656
38                       1389.9999999999998       304.66713211382114       0.2749610886337009       0.7250389113664931       1.0691815301581957       -2.814362680158371
38                       1400                     304.66713211382114       0.27554727374808335      0.7244527262518905       0.17745479105060538      3.0284414911452306
39.99999999999999        1300                     304.66713211382114       0.2963671945003982       0.7036328054995207       2.7845816342397165       1.1973798654503336
39.99999999999999        1310                     304.66713211382114       0.3009452993047176       0.6990547006945146       1.928692347825926        0.765361156856882
39.99999999999999        1320                     304.66713211382114       0.3032504564201569       0.6967495435798793       1.0771110163114452       0.3343567874332639
39.99999999999999        1330                     304.66713211382114       0.3028709921253301       0.6971290078745905       0.2266886061442678       -0.09637208507188727
39.99999999999999        1340                     304.66713211382114       0.29987313183352016      0.7001268681666176       -0.6258688050619974      -0.5275830071061285
39.99999999999999        1349.9999999999998       304.66713211382114       0.2947404419214536       0.7052595580783548       -1.4834797271113411      -0.9600083214995601
39.99999999999999        1360                     304.66713211382114       0.28833678557721926      0.7116632144227464       -2.3488056821503913      -1.3942486956969424
39.99999999999999        1369.9999999999998       304.66713211382114       0.28175445286482736      0.7182455471351512       3.0604062193413233       -1.8304140207973034
39.99999999999999        1380                     304.66713211382114       0.27617209056610265      0.7238279094339025       2.1778250604709077       -2.2684183883304323
39.99999999999999        1389.9999999999998       304.66713211382114       0.2727060240370445       0.7272939759634075       1.2886828455990713       -2.7078236820876924
39.99999999999999        1400                     304.66713211382114       0.27201248371790154      0.7279875162823362       0.3964877004686002       3.135323323938201
42                       1300                     304.66713211382114       0.29261145518981674      0.7073885448102187       2.979673083492598        1.2969175061637472
42                       1310                     304.66713211382114       0.2984670782086995       0.7015329217912121       2.1235088512081672       0.8652114187476927
42                       1320                     304.66713211382114       0.30211007091995645      0.697889929080256        1.2733184535622206       0.4349130127024101
42                       1330                     304.66713211382114       0.3030225210462001       0.69697747895379         0.42591298812880807      0.005298342985198272
42                       1340                     304.66713211382114       0.30106290395332297      0.6989370960466325       -0.4220878387747035      -0.4244837063694683
42                       1349.9999999999998       304.66713211382114       0.2964784560716659       0.7035215439283459       -1.2741731922451034      -0.855202533666722
42                       1360                     304.66713211382114       0.2900526588219027       0.7099473411779338       -2.1332696046145827      -1.2876011744240359
42                       1369.9999999999998       304.66713211382114       0.28286555360475174      0.717134446395258        -3.0014381466604054      -1.7220872710249677
42                       1380                     304.66713211382114       0.2761397417495775       0.7238602582506579       2.403992718568989        -2.1586204844484898
42                       1389.9999999999998       304.66713211382114       0.271172518099901        0.7288274818998669       1.5177942418482133       -2.596956046382446
42                       1400                     304.66713211382114       0.2689070892819203       0.731092910718189        0.6262980552660748       -3.0364120234653336
44                       1300                     304.66713211382114       0.2879354450279697       0.7120645549719534       -3.099753574040349       1.4006295611562105
44                       1310                     304.66713211382114       0.29499954041717974      0.7050004595828959       2.3258578215593233       0.9689881106902136
44                       1320                     304.66713211382114       0.3001574397803317       0.6998425602194035       1.4762564342370592       0.5392268434862193
44                       1330                     304.66713211382114       0.3025745071227035       0.6974254928773256       0.6311239767040144       0.11050781038380185
44                       1340                     304.66713211382114       0.30191281717639484      0.6980871828238364       -0.2127046244398282      -0.3178580575057068
44                       1349.9999999999998       304.66713211382114       0.2982714149859434       0.7017285850136068       -1.0592645322844232      -0.7468818530353548
44                       1360                     304.66713211382114       0.29222667631048765      0.7077733236895868       -1.912021858430189       -1.1774157766501654
44                       1369.9999999999998       304.66713211382114       0.28472693134867916      0.7152730686512572       -2.773352924869755       -1.6098912109484795
44                       1380                     304.66713211382114       0.27702934162336007      0.7229706583764969       2.6381233521631655       -2.044703846751663
44                       1389.9999999999998       304.66713211382114       0.27054956843062006      0.7294504315698825       1.7563972774111007       -2.481631285714462
44                       1400                     304.66713211382114       0.2665710828066691       0.7334289171932612       0.8671708212947492       -2.92010123738025
45.99999999999999        1300                     304.66713211382114       0.28234146580424274      0.7176585341957544       -2.8861465246469633      1.5088430816714518
45.99999999999999        1310                     304.66713211382114       0.2904842377824919       0.7095157622175334       2.5371335756556053       1.0771308770806283
45.99999999999999        1320                     304.66713211382114       0.29713110760024414      0.7028688923996652       1.6866648157907431       0.6475376630228219
45.99999999999999        1330                     304.66713211382114       0.30125626143608686      0.6987437385639494       0.8429308648553824       0.2195724595030865
45.99999999999999        1340                     304.66713211382114       0.30224830882953335      0.6977516911703426       0.0025783159530263226    -0.20755099433042612
45.99999999999999        1349.9999999999998       304.66713211382114       0.2999378524835377       0.7000621475165506       -0.8390029704266152      -0.6350148237560396
45.99999999999999        1360                     304.66713211382114       0.2946558817176616       0.705344118282384        -1.6849412150979146      -1.063497684407118
45.99999999999999        1369.9999999999998       304.66713211382114       0.2872423080987239       0.7127576919011515       -2.539026918920132       -1.4939272264111383
45.99999999999999        1380                     304.66713211382114       0.27888948257286733      0.7211105174268962       2.8796847239906884       -1.9266909154040612
45.99999999999999        1389.9999999999998       304.66713211382114       0.27108413792213776      0.7289158620779361       2.004035595601708        -2.36186608052565
45.99999999999999        1400                     304.66713211382114       0.2652142754679561       0.7347857245318682       1.1186378266621217       -2.7990926328060683
48                       1300                     304.66713211382114       0.27584190478075044      0.7241580952192854       -2.6612455258616676      1.622013668717899
48                       1310                     304.66713211382114       0.28480435761561806      0.7151956423841884       2.7581493692766177       1.1898456735619525
48                       1320                     304.66713211382114       0.29288879251970823      0.7071112074801329       1.9056328425996811       0.7602272196191405
48                       1330                     304.66713211382114       0.2988342246070111       0.7011657753930699       1.062048249210727        0.3327124685673442
48                       1340                     304.66713211382114       0.301719075834964        0.6982809241649988       0.22374572350107835      -0.09355347505612094
48                       1349.9999999999998       304.66713211382114       0.3011165080185022       0.6988834919815691       -0.6132073962277831      -0.5194566971702551
48                       1360                     304.66713211382114       0.2970943795899768       0.7029056204098136       -1.4527779992504057      -0.9460000465390274
48                       1369.9999999999998       304.66713211382114       0.29027841154580397      0.709721588454212        -2.299296717578053       -1.3742354359925728
48                       1380                     304.66713211382114       0.28169491614978537      0.7183050838502926       3.1277786039531255       -1.804670188269216
48                       1389.9999999999998       304.66713211382114       0.2728185567414022       0.7271814432579308       2.2598053317156697       -2.237720496906456
48                       1400                     304.66713211382114       0.2651718837454497       0.7348281162545102       1.38021277759528         -2.6732385372621907
50                       1300                     304.66713211382114       0.2685668779825758       0.7314331220173228       -2.423027318770618       1.7407988836682775
50                       1310                     304.66713211382114       0.2779356235945071       0.7220643764054959       2.9913673184894574       1.308064735768495
50                       1320                     304.66713211382114       0.2872999053680579       0.712700094631853        2.135198160624593        0.8780863660451188
50                       1330                     304.66713211382114       0.2950512550478727       0.7049487449509974       1.29011053134113         0.4506294297954374
50                       1340                     304.66713211382114       0.30000676347794947      0.6999932365216031       0.45273058857223786      0.02501068481495758
50                       1349.9999999999998       304.66713211382114       0.30144852379811254      0.6985514762019486       -0.38076605667246166     -0.3996463460190612
50                       1360                     304.66713211382114       0.29919065473211787      0.7008093452679671       -1.214687007898427       -0.8244139963073197
50                       1369.9999999999998       304.66713211382114       0.29353021889464725      0.7064697811053132       -2.0534577280886137      -1.2503765648326846
50                       1380                     304.66713211382114       0.28527804696352704      0.7147219530366267       -2.900890221053573       -1.6783772018526009