% Model:              nanoholes_rw_sweep.mph
% Version:            COMSOL 6.0.0.405
% Date:               Mar 29 2024, 09:31
% Table:              Table 1 - Global Evaluation 1
% r (nm)                 h_meta (nm)              freq (THz)               reflection (1)           transmission (1)         reflection_phi (rad)     transmission_phi (rad)
0.9999999999999999       50                       304.66713211382114       0.30644755092783         0.693552449072147        -1.5322376421759385      -0.9703641916665368
0.9999999999999999       100                      304.66713211382114       0.3064429144374834       0.693557085562036        0.3068381198219634       3.0907591104773906
0.9999999999999999       150                      304.66713211382114       0.3064837699656716       0.6935162300343222       2.146037787248132        0.8687306154566342
0.9999999999999999       200                      304.66713211382114       0.3064369088849221       0.6935630911151136       -2.2981470827602544      -1.3533168021848019
0.9999999999999999       250                      304.66713211382114       0.3064518273979335       0.6935481726018883       -0.45911442865103413     2.7078114479209954
0.9999999999999999       300                      304.66713211382114       0.3064565941571549       0.6935434058427875       1.3801231186974938       0.4857960665039632
0.9999999999999999       350                      304.66713211382114       0.30644035749392373      0.6935596425061473       -3.064016258326182       -1.736268003102923
0.9999999999999999       400                      304.66713211382114       0.3064510091526184       0.693548990847378        -1.2250062150638676      2.3248482007942353
0.9999999999999999       450                      304.66713211382114       0.3064518970054117       0.6935481029946201       0.6142426397414155       0.10284852785698193
0.9999999999999999       500                      304.66713211382114       0.3064480723127966       0.6935519276872959       2.453269589783498        -2.119198516883262
0.9999999999999999       550                      304.66713211382114       0.3064806445534273       0.6935193554466166       -1.9908926657573316      1.9418980360755076
0.9999999999999999       600                      304.66713211382114       0.30643064253883884      0.6935693574612789       -0.15170593802148516     -0.28012015736270757
0.9999999999999999       650                      304.66713211382114       0.30644494563851826      0.6935550543614332       1.6873835350343147       -2.5021697929786257
0.9999999999999999       700                      304.66713211382114       0.30646959794326967      0.6935304020579914       -2.7567470619886936      1.5589626813900321
0.9999999999999999       749.9999999999999        304.66713211382114       0.3064453740637852       0.6935546259361509       -0.9176083009417731      -0.6630626981255464
0.9999999999999999       800                      304.66713211382114       0.3064199961939354       0.6935800038068335       0.9214681681250012       -2.8851202196548056
0.9999999999999999       849.9999999999999        304.66713211382114       0.3064912888898158       0.693508711109984        2.760595106823566        1.1760302765635628
0.9999999999999999       900                      304.66713211382114       0.306451869456197        0.6935481305436948       -1.6835235976178748      -1.0460152556794704
0.9999999999999999       949.9999999999999        304.66713211382114       0.30644297139926047      0.6935570286009491       0.15551262863561632      3.015113056786878
0.9999999999999999       1000                     304.66713211382114       0.30646414753359197      0.6935358524662535       1.9947118827641876       0.7930785352161066
0.9999999999999999       1050                     304.66713211382114       0.30645272389274314      0.6935472761073415       -2.4494313490870714      -1.4289657357484955
0.9999999999999999       1100                     304.66713211382114       0.3064480016008854       0.6935519983990459       -0.6104065029213024      2.6321471580395417
0.9999999999999999       1149.9999999999998       304.66713211382114       0.3064519433245271       0.6935480566754293       1.2288309905751935       0.41013285660706045
0.9999999999999999       1200                     304.66713211382114       0.30644890104265166      0.6935510989571797       3.067862993207398        -1.8119249599662457
0.9999999999999999       1250                     304.66713211382114       0.3064617942825929       0.6935382057175353       -1.3763092967580075      2.2491966939648638
0.9999999999999999       1300                     304.66713211382114       0.30644031945944666      0.6935596805405037       0.46292170444682346      0.02716149978945692
0.9999999999999999       1349.9999999999998       304.66713211382114       0.30644532871450214      0.6935546712852582       2.3019603328697036       -2.1948642714310354
0.9999999999999999       1400                     304.66713211382114       0.3064737370138794       0.6935262629860489       -2.14217579909821        1.8662558972657088
0.9999999999999999       1450                     304.66713211382114       0.3064350930835363       0.6935649069167116       -0.30301673668771895     -0.3557874353256027
0.9999999999999999       1499.9999999999998       304.66713211382114       0.30643838159182046      0.6935616184084157       1.5360401419525733       -2.5778310549865004
0.9999999999999999       1550                     304.66713211382114       0.30646735313799245      0.6935326468622474       -2.9080649953104363      1.4833016890663941
0.9999999999999999       1600                     304.66713211382114       0.30644625993149227      0.693553740068432        -1.0689385426493765      -0.7387244251720625
0.9999999999999999       1650                     304.66713211382114       0.30643437184196415      0.6935656281579659       0.7701565725005542       -2.960777902487049
0.9999999999999999       1699.9999999999998       304.66713211382114       0.30647512757612044      0.6935248724238474       2.609247511156387        1.1003720737145022
0.9999999999999999       1750                     304.66713211382114       0.30645189643887805      0.6935481035611586       -1.834879237959492       -1.1217004698198383
0.9999999999999999       1800                     304.66713211382114       0.3064503603178373       0.6935496396821305       0.004193634287753128     2.9394485265308736
0.9999999999999999       1849.9999999999998       304.66713211382114       0.3064679759243233       0.6935320240753581       1.843391052482387        0.7174355099796331
0.9999999999999999       1899.9999999999998       304.66713211382114       0.30645809569431         0.6935419043059329       -2.6007113457252453      -1.504609811841161
0.9999999999999999       1949.9999999999998       304.66713211382114       0.30644606081560266      0.69355393918437         -0.7617544666996723      2.5564670702343655
0.9999999999999999       2000                     304.66713211382114       0.3064611791773442       0.6935388208225064       1.0775036359347143       0.3344884651125755
11                       50                       304.66713211382114       0.303861151026756        0.6961388489732767       -1.5187324463887586      -0.9647438472677898
11                       100                      304.66713211382114       0.3041495833262256       0.6958504166737739       0.3208609369467258       3.099025462614671
11                       150                      304.66713211382114       0.3062936880687338       0.6937063119312206       2.1756251953778          0.8831539674372225
11                       200                      304.66713211382114       0.3033774504021586       0.6966225495977165       -2.257558577196959       -1.3338158312198767
11                       250                      304.66713211382114       0.3047310438651954       0.6952689561348562       -0.41708771254614674     2.7301778240960948
11                       300                      304.66713211382114       0.3060433605733031       0.6939566394266662       1.4397666387235846       0.5148047097504324
11                       350                      304.66713211382114       0.30313322981639995      0.6968667701836918       -2.9965488585589073      -1.7028892898765242
11                       400                      304.66713211382114       0.3052992188466199       0.6947007811559184       -1.1541206290489652      2.361540750235925
11                       450                      304.66713211382114       0.3055833278860263       0.6944166721139872       0.7035581746480933       0.14638641298657518
11                       500                      304.66713211382114       0.303071459105196        0.696928540894802        2.547453445165063        -2.072002363367879
11                       550                      304.66713211382114       0.3058051674596386       0.6941948325402599       -1.8906320321793584      1.9930578895293103
11                       600                      304.66713211382114       0.3050532459565777       0.6949467540433297       -0.03317881897464693     -0.22216945774698
11                       650                      304.66713211382114       0.30321710793047635      0.6967828920708828       1.8083287026692063       -2.441109403088564
11                       700                      304.66713211382114       0.306177883677383        0.693822116322438        -2.6266158206908594      1.6246749792648545
11                       749.9999999999999        304.66713211382114       0.30448366769700774      0.6955163323025705       -0.7705607365158725      -0.5908654869867701
11                       800                      304.66713211382114       0.3035306645714654       0.6964693354285351       1.0694499502598724       -2.8101715427255205
11                       849.9999999999999        304.66713211382114       0.30636485897857973      0.6936351410215018       2.920874617790719        1.2563851163362423
11                       900                      304.66713211382114       0.30392071341972654      0.6960792865803027       -1.508534798665366       -0.9597157261599097
11                       949.9999999999999        304.66713211382114       0.30401489553220357      0.6959851044679073       0.33094929203176726      3.1040568874593246
11                       1000                     304.66713211382114       0.30635071621959614      0.6936492837804876       2.1852683959517534       0.8880886354209991
11                       1050                     304.66713211382114       0.3034753685183957       0.696524631481797        -2.2470677582447744      -1.3286780874925965
11                       1100                     304.66713211382114       0.30457725652914597      0.6954227434708053       -0.4069125739667643      2.735242655689701
11                       1149.9999999999998       304.66713211382114       0.30611485263063154      0.6938851473694083       1.4495638031204325       0.5197836873620909
11                       1200                     304.66713211382114       0.30316730052042035      0.6968326994797278       -2.9859915199389984      -1.6977380947397616
11                       1250                     304.66713211382114       0.3051681984324839       0.6948318015673531       -1.1441661348166308      2.366569810964616
11                       1300                     304.66713211382114       0.3057206091860303       0.694279390814069        0.7134290468778469       0.15137244848890757
11                       1349.9999999999998       304.66713211382114       0.30307587973385464      0.6969241202661953       2.5580319179487714       -2.066837001732661
11                       1400                     304.66713211382114       0.3056953794148484       0.6943046205851486       -1.8807663671002315      1.9980521093243206
11                       1450                     304.66713211382114       0.30519441785021         0.6948055821495364       -0.02316490353698158     -0.21713657083428511
11                       1499.9999999999998       304.66713211382114       0.3031608548994701       0.6968391451003967       1.818860924302632        -2.435969385855609
11                       1550                     304.66713211382114       0.3060976592966035       0.693902340703412        -2.616908423691061       1.6296303744234595
11                       1600                     304.66713211382114       0.30462366259981283      0.6953763374001778       -0.7603971464404868      -0.5857911081462992
11                       1650                     304.66713211382114       0.30343970570866274      0.6965602942890166       1.079865380703258        -2.8050322080185968
11                       1699.9999999999998       304.66713211382114       0.3063442402647326       0.6936557597354253       2.930525914166487        1.2613441900034101
11                       1750                     304.66713211382114       0.304056296288679        0.6959437037111378       -1.498243663983852       -0.9546051911928631
11                       1800                     304.66713211382114       0.3038796726821362       0.6961203273178629       0.34109208363677135      3.1090811187998133
11                       1849.9999999999998       304.66713211382114       0.3063646655265588       0.693635334473458        2.1949060605429263       0.8930400426860552
11                       1899.9999999999998       304.66713211382114       0.30357571470189215      0.6964242852982452       -2.2366739562279663      -1.3235639948077704
11                       1949.9999999999998       304.66713211382114       0.304441149192983        0.6955588508071673       -0.3968003231631463      2.7402885348016146
11                       2000                     304.66713211382114       0.3061782452149012       0.6938217547850649       1.4592361243949934       0.5247596388655381
21                       50                       304.66713211382114       0.29811750770470974      0.701882492295207        -1.4876219806888324      -0.9519413019382145
21                       100                      304.66713211382114       0.29882939292487004      0.7011706070751111       0.35310008499743184      3.1176947489826152
21                       150                      304.66713211382114       0.30552259439510904      0.6944774056048545       2.2414015468595703       0.9150385179850736
21                       200                      304.66713211382114       0.29633362919547673      0.7036663708012142       -2.1669962884243863      -1.2906052573602502
21                       250                      304.66713211382114       0.3002975446289849       0.6997024553710819       -0.32399797653079776     2.7796787677539134
21                       300                      304.66713211382114       0.3050503249788897       0.6949496750212025       1.5710429856596844       0.5788193300109035
21                       350                      304.66713211382114       0.295651134087469        0.7043488659125987       -2.8450683840264013      -1.6285814425431815
21                       400                      304.66713211382114       0.3018361713246637       0.6981638286751776       -0.9975250613267945      2.4427081530501047
21                       450                      304.66713211382114       0.30400627749269926      0.6959937225075447       0.9003100905665878       0.24246764640406893
21                       500                      304.66713211382114       0.29528322485211894      0.7047167751478273       2.759018293403074        -1.9668419590553365
21                       550                      304.66713211382114       0.30326061871418275      0.6967393812857257       -1.6701227180075318      2.10593286336108
21                       600                      304.66713211382114       0.30272509622559407      0.6972749037743847       0.22851387482857638      -0.09412057460667152
21                       650                      304.66713211382114       0.2953657096067871       0.7046342903933019       2.0799252236441106       -2.305102223650563
21                       700                      304.66713211382114       0.30444444108959856      0.6955555589103034       -2.3414276649002748      1.7694754670464818
21                       749.9999999999999        304.66713211382114       0.3012466698769326       0.6987533301229928       -0.44455610809671153     -0.43100101622758874
21                       800                      304.66713211382114       0.2958774456781383       0.7041225543219143       1.401070435108262        -2.6433399878285266
21                       849.9999999999999        304.66713211382114       0.30532067506897903      0.6946793249321319       -3.011834184315983       1.4332140848254047
21                       900                      304.66713211382114       0.29973140150548305      0.7002685984946753       -1.1188963174060862      -0.7681810651612452
21                       949.9999999999999        304.66713211382114       0.2967992149934671       0.7032007850064894       0.7228730839898744       -2.9813852980171043
21                       1000                     304.66713211382114       0.3057803896767225       0.6942196103234122       2.601466607840515        1.0970603680232351
21                       1050                     304.66713211382114       0.2982627235163407       0.7017372764837527       -1.7946752364374414      -1.105682726593158
21                       1100                     304.66713211382114       0.2980432697147843       0.7019567302853296       0.045680828287591256     2.9639686172310786
21                       1149.9999999999998       304.66713211382114       0.3058159861473936       0.6941840138525408       1.9318670993510345       0.7610014771506213
21                       1200                     304.66713211382114       0.29699111541185186      0.703008884588149        -2.471675125979453       -1.443470665518742
21                       1250                     304.66713211382114       0.2994913416517269       0.7005086583483304       -0.6301995643947758      2.6264339550060276
21                       1300                     304.66713211382114       0.3053855662945938       0.6946144337054702       1.2620045506646937       0.4248598368465677
21                       1349.9999999999998       304.66713211382114       0.2960150882600833       0.7039849117399505       3.1335058712840524       -1.7814929342053911
21                       1400                     304.66713211382114       0.3010457001655994       0.698954299834287        -1.3047958216226816      2.289186426332924
21                       1450                     304.66713211382114       0.3045688521272243       0.6954311478728994       0.5916622113083871       0.08862623125413206
21                       1499.9999999999998       304.66713211382114       0.2954182006103448       0.7045817993895093       2.454702774054697        -2.119708604578412
21                       1550                     304.66713211382114       0.30253555779364344      0.6974644422064046       -1.9780507381888257      1.9522787412682807
21                       1600                     304.66713211382114       0.30343636623654546      0.6965636337636032       -0.07952389185547967     -0.2478020445085675
21                       1650                     304.66713211382114       0.2952482920636425       0.7047517079364075       1.77559819516115         -2.457952381456905
21                       1699.9999999999998       304.66713211382114       0.303871292353405        0.6961287076465292       -2.649980923604574       1.6156615223354571
21                       1750                     304.66713211382114       0.3020320741779807       0.6979679258220262       -0.7519041732663694      -0.5845487353349007
21                       1800                     304.66713211382114       0.2955547067037011       0.7044452932965387       1.096564195841715        -2.796185414308624
21                       1849.9999999999998       304.66713211382114       0.3049262761422798       0.6950737238578265       2.9623482174673237       1.2792833637045085
21                       1899.9999999999998       304.66713211382114       0.30053670633480023      0.6994632936652302       -1.425608770169336       -0.9215733999598653
21                       1949.9999999999998       304.66713211382114       0.2962716248749643       0.7037283751249738       0.4178957233554295       -3.1343739150996783
21                       2000                     304.66713211382114       0.3055852879016535       0.6944147120983115       2.2923534968456845       0.9431556819664207
30.999999999999996       50                       304.66713211382114       0.2902980082465877       0.7097019917535875       -1.4430088385645483      -0.9337741996135837
30.999999999999996       100                      304.66713211382114       0.2915394453773054       0.7084605546226871       0.39953132708598443      -3.139311924617612
30.999999999999996       150                      304.66713211382114       0.30406761614052513      0.6959323838594867       2.3325844001958287       0.9587856243237806
30.999999999999996       200                      304.66713211382114       0.2865404394113224       0.7134595605887373       -2.0413018699514844      -1.2313952022429508
30.999999999999996       250                      304.66713211382114       0.2933996659983902       0.7066003340014101       -0.19591456031010732     2.8474834833188063
30.999999999999996       300                      304.66713211382114       0.30374868425828555      0.6962513157414993       1.7492750868719886       0.6658304543727921
30.999999999999996       350                      304.66713211382114       0.2856041413462988       0.7143958586535125       -2.6338879747503476      -1.5263002417013871
30.999999999999996       400                      304.66713211382114       0.2955501599990287       0.7044498400010044       -0.7832461418769905      2.5536366663826215
30.999999999999996       450                      304.66713211382114       0.30255344447388344      0.6974465555261121       1.1666046292236139       0.3729654694673569
30.999999999999996       500                      304.66713211382114       0.28472126256965474      0.7152787374305254       3.054734488896106        -1.821862650660448
30.999999999999996       550                      304.66713211382114       0.29760409214620487      0.702395907853866        -1.3702486198039285      2.259756084725996
30.999999999999996       600                      304.66713211382114       0.30110631880893735      0.6988936811910543       0.5830118487255004       0.07990848760981621
30.999999999999996       650                      304.66713211382114       0.2842901455098087       0.7157098544902972       2.459994903332755        -2.1174288621487065
30.999999999999996       700                      304.66713211382114       0.299541049682263        0.7004589503177155       -1.9559330241894524      1.9662070209257922
30.999999999999996       749.9999999999999        304.66713211382114       0.29937577113042924      0.700624228869534        -0.0015384794877536156   -0.21335938958257467
30.999999999999996       800                      304.66713211382114       0.2843061939124378       0.7156938060876578       1.8651732944249657       -2.4130276481291664
30.999999999999996       849.9999999999999        304.66713211382114       0.3012568984017536       0.6987431015985078       -2.5403109606303236      1.6729811837711863
30.999999999999996       900                      304.66713211382114       0.29744705109875424      0.7025529489014722       -0.5872743857289796      -0.5069315571776222
30.999999999999996       949.9999999999999        304.66713211382114       0.28475437565816275      0.7152456243417025       1.2703937855399186       -2.7085993187697635
30.999999999999996       1000                     304.66713211382114       0.30267702043504974      0.6973229795652209       -3.123804757989919       1.3799439158638978
30.999999999999996       1050                     304.66713211382114       0.295397408113459        0.7046025918865932       -1.174309100131959       -0.8007877393947301
30.999999999999996       1100                     304.66713211382114       0.2856211789238095       0.7143788210762783       0.6760000277289878       -3.004121614423867
30.999999999999996       1149.9999999999998       304.66713211382114       0.30376511533289513      0.696234884667014        2.5766530020344294       1.0870950595387858
30.999999999999996       1200                     304.66713211382114       0.2932899627724627       0.706710037227632        -1.7625781861163197      -1.0949474043200977
30.999999999999996       1250                     304.66713211382114       0.28687699685099843      0.7131230031493806       0.08247856518464344      2.983756755495467
30.999999999999996       1300                     304.66713211382114       0.30446844201692674      0.6955315579830437       1.9944692280269798       0.794356919902167
30.999999999999996       1349.9999999999998       304.66713211382114       0.291239473465791        0.7087605265341833       -2.352190881405589       -1.3893740077644403
30.999999999999996       1400                     304.66713211382114       0.2884585058580822       0.7115414941420184       -0.5102319662327511      2.688599053162225
30.999999999999996       1450                     304.66713211382114       0.3047652756777818       0.6952347243223524       1.4126300987158047       0.5017138639925204
30.999999999999996       1499.9999999999998       304.66713211382114       0.2893266896361017       0.7106733103639675       -2.943087775562581       -1.6841291897375015
30.999999999999996       1550                     304.66713211382114       0.29029108041118146      0.7097089195889821       -1.1017746773103285      2.3937511771952527
30.999999999999996       1600                     304.66713211382114       0.30465981552862925      0.6953401844714145       0.830881699099114        0.20912477811943736
30.999999999999996       1650                     304.66713211382114       0.28759717200451473      0.7124028279980091       2.747925486694458        -1.9791313630419438
30.999999999999996       1699.9999999999998       304.66713211382114       0.29231433333470175      0.7076856666654926       -1.6920526540172205      2.099143471138517
30.999999999999996       1750                     304.66713211382114       0.3041247479337897       0.695875252067043        0.24880774837787184      -0.08358891333122843
30.999999999999996       1800                     304.66713211382114       0.2862001374714578       0.7137998625284142       2.154827203408425        -2.2743312199694232
30.999999999999996       1849.9999999999998       304.66713211382114       0.2943986626105877       0.7056013373891235       -2.2810206208385315      1.8048456859962136
30.999999999999996       1899.9999999999998       304.66713211382114       0.303206126045688        0.6967938739541526       -0.3336441336690567      -0.3763639349230427
30.999999999999996       1949.9999999999998       304.66713211382114       0.2851207079523879       0.714879292047577        1.5607802984913641       -2.56978634436773
30.999999999999996       2000                     304.66713211382114       0.2965145734034554       0.7034854265974081       -2.868462102395721       1.5109003029910262
41                       50                       304.66713211382114       0.28094841684572164      0.7190515831543081       -1.3855610812182342      -0.910781331015007
41                       100                      304.66713211382114       0.28256771313743906      0.717432286862599        0.45927184984477726      -3.10633643994158
41                       150                      304.66713211382114       0.3021459388104835       0.6978540611894444       2.4459845505548308       1.0127100452345192
41                       200                      304.66713211382114       0.2747391478735701       0.7252608521263832       -1.8819638935673364      -1.1576867248467453
41                       250                      304.66713211382114       0.2834980679551294       0.7165019320444541       -0.0360216227948479      2.9316188211617575
41                       300                      304.66713211382114       0.3024826135404741       0.6975173864595778       1.9663189684778224       0.7723926479971571
41                       350                      304.66713211382114       0.27426541823689876      0.725734581763196        -2.365926405050533       -1.3986562976724486
41                       400                      304.66713211382114       0.28523423742763876      0.7147657625723134       -0.5169232663067527      2.691042038946269
41                       450                      304.66713211382114       0.30176435839188187      0.6982356416080892       1.4893177925435863       0.5325364924625309
41                       500                      304.66713211382114       0.27319653576612074      0.7268034642334518       -2.852201288523798       -1.6406279961701586
41                       550                      304.66713211382114       0.28682273892335086      0.7131772610765849       -0.9992225187571199      2.449953300036097
41                       600                      304.66713211382114       0.301070746741292        0.6989292532585625       1.0118735743879703       0.2926048280096438
41                       650                      304.66713211382114       0.2723590052070562       0.727640994792782        2.944693949259494        -1.882543626240641
41                       700                      304.66713211382114       0.28846745928372647      0.7115325407161781       -1.4808204831431633      2.209064467651112
41                       749.9999999999999        304.66713211382114       0.3002041211172765       0.6997958788828507       0.5341649504400583       0.052611031513094826